20
Lattice="6.209429 0.0 0.0 0.0 6.314057 0.0 0.0 0.0 8.841767" Properties=species:S:1:pos:R:3:spacegroup_kinds:I:1:forces:R:3:magmoms:R:1 spacegroup="P 1" unit_cell=conventional occupancy="_JSON {\"0\": {\"K\": 1}, \"1\": {\"K\": 1}, \"2\": {\"K\": 1}, \"3\": {\"K\": 1}, \"4\": {\"Ca\": 1}, \"5\": {\"Ca\": 1}, \"6\": {\"Ca\": 1}, \"7\": {\"Ca\": 1}, \"8\": {\"F\": 1}, \"9\": {\"F\": 1}, \"10\": {\"F\": 1}, \"11\": {\"F\": 1}, \"12\": {\"F\": 1}, \"13\": {\"F\": 1}, \"14\": {\"F\": 1}, \"15\": {\"F\": 1}, \"16\": {\"F\": 1}, \"17\": {\"F\": 1}, \"18\": {\"F\": 1}, \"19\": {\"F\": 1}}" energy=-74.76998003706807 dipole="-0.0016901214189501434 -0.008582248915042608 0.0009473606880039678" magmom=0.0 free_energy=-74.76998003706807 pbc="T T T"
K        2.98010645       0.28899408       2.21047967        0       0.00014164       0.00021538      -0.00011831       0.00000000
K        6.06464394       2.87913280       6.63133986        1       0.00011511       0.00007632      -0.00017163       0.00000000
K        0.14485753       3.43511281       2.21044684        2      -0.00002229      -0.00003653      -0.00001310       0.00000000
K        3.22933599       6.02527027       6.63133301        3      -0.00012026      -0.00010370      -0.00008922       0.00000000
Ca      -0.00000788       0.00014100       0.00001039        4       0.00046730      -0.00080401      -0.00033045       0.00000000
Ca       3.10471249       3.15712511      -0.00005100        5       0.00014363      -0.00039088       0.00046852       0.00000000
Ca       3.10476373       3.15712426       4.42085535        6      -0.00011231      -0.00005300      -0.00002081       0.00000000
Ca       0.00006069       0.00006967       4.42090622        7      -0.00016537       0.00027227      -0.00022001       0.00000000
F        1.37757349       1.75974573       3.98229548        8       0.00009463      -0.00008762      -0.00019079       0.00000000
F        4.42432970       1.37300951       4.84440431        9      -0.00018387      -0.00012513       0.00017608       0.00000000
F        1.78515487       4.94114037       0.42357955       10      -0.00004902       0.00017102      -0.00010160       0.00000000
F        4.83187969       4.55442571       8.40311665       11      -0.00018166       0.00025827       0.00000620       0.00000000
F        4.83192742       4.55443744       4.85945815       12      -0.00029696      -0.00006833       0.00034413       0.00000000
F        1.78515983       4.94118184       3.99733826       13       0.00012446      -0.00024082       0.00001440       0.00000000
F        4.42433946       1.37297037       8.41819028       14      -0.00042330       0.00036844       0.00015156       0.00000000
F        1.37756113       1.75971970       0.43860435       15       0.00018047       0.00018112       0.00011427       0.00000000
F        5.74667888       6.06204400       2.21045380       16      -0.00029195       0.00013931      -0.00011981       0.00000000
F        2.55017557       3.40632463       6.63127292       17       0.00025685       0.00008072       0.00027075       0.00000000
F        3.65919655       2.90780251       2.21050040       18      -0.00004338      -0.00016077      -0.00060984       0.00000000
F        0.46288265       0.25209771       6.63128325       19      -0.00033588      -0.00017676       0.00045256       0.00000000
