39
Lattice="12.02674 2.975846 0.0 -8.590496 8.927407 0.0 0.0 0.0 5.8971" Properties=species:S:1:pos:R:3:initial_magmoms:R:1:forces:R:3:magmoms:R:1 energy=-243.2017381462566 dipole="3.540729546398061 12.872575008212642 -0.003299645169185866" magmom=-4.263256414560601e-14 free_energy=-243.2072149088613 stress="5.394787993052037e-05 -5.2293748856673546e-05 -1.2787677431759422e-05 -5.2293748856673546e-05 4.596184592534222e-05 -9.121166362295534e-08 -1.2787677431759422e-05 -9.121166362295534e-08 -0.018349318276249037" pbc="T T T"
Ta       0.04884347       0.16749045       2.94847795       0.00000000      -0.00000320      -0.00000177      -0.00001295      -0.00000000
Ta       7.06763637       5.99495340       2.95272812       0.00000000      -0.00005718      -0.00000643       0.00000173      -0.00000000
Ta      -1.58692364       2.99309391       2.94734104       0.00000000       0.00004464      -0.00003734      -0.00000620      -0.00000000
Ta       1.85081076       9.23752200       2.94659467       0.00000000      -0.00000312       0.00002066       0.00000416      -0.00000000
Ta      -5.27257115       9.09950520       2.94747019       0.00000000      -0.00002292      -0.00000280       0.00002697      -0.00000000
Ta      -3.53370826       6.24328560       2.94423043       0.00000000       0.00002040      -0.00003004       0.00000717       0.00000000
Ta       0.02235149       5.93058454       2.94311015       0.00000000       0.00004768      -0.00002877       0.00002561       0.00000000
Ta      -1.48711074       9.16811620       2.94212128       0.00000000       0.00002692       0.00005973       0.00004834      -0.00000000
Ta       1.68310585       3.00070267       2.95035482       0.00000000      -0.00000087      -0.00001656       0.00000512      -0.00000000
Ta       8.80649150       3.13871740       2.94948193       0.00000000       0.00002620       0.00001963      -0.00001155      -0.00000000
Ta       5.12085783       9.24514607       2.94961764       0.00000000      -0.00005908       0.00002652       0.00000492      -0.00000000
Ta       3.51155647       6.30764192       2.95384183       0.00000000      -0.00001009      -0.00000059      -0.00001593      -0.00000000
Ta       5.02102382       3.07009349       2.95482723       0.00000000      -0.00001657       0.00000518      -0.00002674      -0.00000000
S        3.43941853       4.17266482       1.48805501       0.00000000       0.00002307       0.00005592      -0.00002910      -0.00000000
S        0.04957450       4.08457754       1.35156150       0.00000000      -0.00003434       0.00000279      -0.00000742      -0.00000000
S       -5.14925289       7.13611680       1.35118152       0.00000000       0.00007244      -0.00000580       0.00001503      -0.00000000
S        0.09303349      10.11343734       1.34696445       0.00000000       0.00001403      -0.00001063      -0.00006260      -0.00000000
S       -3.35470200       4.13859213       1.48685332       0.00000000      -0.00004175       0.00000933      -0.00000696      -0.00000000
S        3.48567691      10.13504603       1.32831803       0.00000000       0.00003987      -0.00004254       0.00000270      -0.00000000
S       10.39839003       4.10904430       1.32791101       0.00000000      -0.00005092       0.00000166       0.00000372       0.00000000
S        1.72479758       1.13760608       1.32950026       0.00000000       0.00004351      -0.00000134       0.00001031       0.00000000
S       -3.40076476      10.05526747       1.48299105       0.00000000       0.00001417       0.00002595      -0.00000665      -0.00000000
S        5.20239298       5.12657179       4.42439641       0.00000000       0.00001595       0.00002324      -0.00002716      -0.00000000
S       -1.66847285       7.11165065       1.47254621       0.00000000      -0.00002876      -0.00002727       0.00002095      -0.00000000
S        1.74648157       7.13860549       1.48158451       0.00000000       0.00002437      -0.00000585      -0.00000227       0.00000000
S        6.90978353       4.07591285       1.48768482       0.00000000      -0.00007499       0.00004519       0.00002816       0.00000000
S        0.09450048       8.06555692       4.40889649       0.00000000       0.00001488      -0.00002680       0.00002396      -0.00000000
S        6.88862666       8.09964243       4.41010626       0.00000000       0.00000787      -0.00005726      -0.00000020      -0.00000000
S        3.44087501       2.12479338       4.54998845       0.00000000       0.00004566       0.00000619       0.00006146      -0.00000000
S       -3.37586333       8.16232270       4.40927813       0.00000000       0.00003225      -0.00005470      -0.00005035       0.00000000
S       -1.72305849       5.10608460       4.40678038       0.00000000      -0.00000290      -0.00002280      -0.00000101      -0.00000000
S        1.78743403       5.09961932       4.41536517       0.00000000       0.00002538       0.00000772       0.00000040      -0.00000000
S        8.68317589       5.10210420       4.54577002       0.00000000      -0.00008986       0.00003957      -0.00001780      -0.00000000
S        3.48435578       8.15365193       4.54538415       0.00000000      -0.00000065      -0.00002899       0.00004023       0.00000000
S        6.93468436       2.18295029       4.41395379       0.00000000      -0.00004022       0.00003913       0.00001369      -0.00000000
S        0.04824300       2.10318104       4.56864189       0.00000000      -0.00002264       0.00004982      -0.00001708      -0.00000000
S        1.80912633      11.10061905       4.56744789       0.00000000      -0.00005044       0.00000875      -0.00000126      -0.00000000
S       -6.86447010       8.12919089       4.56905110       0.00000000       0.00005887      -0.00002222      -0.00001835       0.00000000
S        5.25697610       7.13214771       1.49018462       0.00000000       0.00001481      -0.00002316      -0.00002639      -0.00000000
