
  ___ ___ ___ _ _ _  
 |   |   |_  | | | | 
 | | | | | . | | | | 
 |__ |  _|___|_____|  21.6.1b1
 |___|_|             

User:   chronum@localhost.localdomain
Date:   Wed Aug 11 20:54:42 2021
Arch:   x86_64
Pid:    669949
Python: 3.8.10
gpaw:   /home/chronum/GPAW/gpawhacksrc/gpaw (e48871cb1a)
_gpaw:  /home/chronum/GPAW/gpawhacksrc/
        _gpaw.cpython-38-x86_64-linux-gnu.so (5d5b0fc3a6)
ase:    /home/chronum/miniconda3/envs/gpawhack/lib/python3.8/site-packages/ase (version 3.22.0)
numpy:  /home/chronum/miniconda3/envs/gpawhack/lib/python3.8/site-packages/numpy (version 1.21.1)
scipy:  /home/chronum/miniconda3/envs/gpawhack/lib/python3.8/site-packages/scipy (version 1.7.0)
libxc:  4.3.4
units:  Angstrom and eV
cores: 8
OpenMP: False
OMP_NUM_THREADS: 1

Input parameters:
  convergence: {custom: [RelativeForces(0.1,True)],
                density: 0.0003,
                eigenstates: 1e-05}
  kpts: [6 6 1]
  mode: pw

System changes: positions, numbers, cell, pbc, initial_charges, initial_magmoms 

Initialize ...

Mo-setup:
  name: Molybdenum
  id: ac24daaf086600a00ce6d19a74574df1
  Z: 42.0
  valence: 14
  core: 28
  charge: 0.0
  file: /home/chronum/GPAW/setups/gpaw-setups-0.9.20000/Mo.LDA.gz
  compensation charges: gauss, rc=0.38, lmax=2
  cutoffs: 2.16(filt), 1.42(core),
  valence states:
                energy  radius
    4s(2.00)   -64.384   1.238
    5s(1.00)    -4.319   1.238
    4p(6.00)   -38.595   1.296
    5p(0.00)    -1.161   1.296
    4d(5.00)    -3.933   1.296
    *d          23.278   1.296

  Using partial waves for Mo as LCAO basis

S-setup:
  name: Sulfur
  id: a5eb49d7597a2879c13719b04c71318f
  Z: 16.0
  valence: 6
  core: 10
  charge: 0.0
  file: /home/chronum/GPAW/setups/gpaw-setups-0.9.20000/S.LDA.gz
  compensation charges: gauss, rc=0.24, lmax=2
  cutoffs: 1.77(filt), 1.66(core),
  valence states:
                energy  radius
    3s(2.00)   -17.278   0.974
    3p(4.00)    -7.106   0.979
    *s           9.933   0.974
    *p          20.105   0.979
    *d           0.000   0.900

  Using partial waves for S as LCAO basis

Reference energy: -526675.923698

Spin-paired calculation

Convergence criteria:
 Maximum [total energy] change in last 3 cyles: 0.0005 eV / electron
 Maximum integral of absolute [dens]ity change: 0.0003 electrons / valence electron
 Maximum integral of absolute [eigenst]ate change: 1e-05 eV^2 / valence electron
 Maximum change in the atomic [forces] across last 2 cycles: 0.1 eV/Ang
 Maximum number of scf [iter]ations: 333
 (Square brackets indicate name in SCF output, whereas a 'c' in
 the SCF output indicates the quantity has converged.)

Symmetries present (total): 1

  ( 1  0  0)
  ( 0  1  0)
  ( 0  0  1)

36 k-points: 6 x 6 x 1 Monkhorst-Pack grid
18 k-points in the irreducible part of the Brillouin zone
       k-points in crystal coordinates                weights
   0:     0.08333333   -0.41666667    0.00000000          2/36
   1:     0.08333333   -0.25000000    0.00000000          2/36
   2:     0.08333333   -0.08333333    0.00000000          2/36
   3:     0.08333333    0.08333333    0.00000000          2/36
   4:     0.08333333    0.25000000    0.00000000          2/36
   5:     0.08333333    0.41666667    0.00000000          2/36
   6:     0.25000000   -0.41666667    0.00000000          2/36
   7:     0.25000000   -0.25000000    0.00000000          2/36
   8:     0.25000000   -0.08333333    0.00000000          2/36
   9:     0.25000000    0.08333333    0.00000000          2/36
          ...
  17:     0.41666667    0.41666667    0.00000000          2/36

Wave functions: Plane wave expansion
  Cutoff energy: 340.000 eV
  Number of coefficients (min, max): 6558, 6607
  Pulay-stress correction: 0.000000 eV/Ang^3 (de/decut=0.000000)
  Using FFTW library
  ScaLapack parameters: grid=1x1, blocksize=None
  Wavefunction extrapolation:
    Improved wavefunction reuse through dual PAW basis 

Occupation numbers: Fermi-Dirac: width=0.1000 eV
 

Eigensolver
   Davidson(niter=2) 

Densities:
  Coarse grid: 28*28*60 grid
  Fine grid: 56*56*120 grid
  Total Charge: 0.000000 

Density mixing:
  Method: separate
  Backend: pulay
  Linear mixing parameter: 0.05
  Mixing with 5 old densities
  Damping of long wave oscillations: 50 

Hamiltonian:
  XC and Coulomb potentials evaluated on a 56*56*120 grid
  Using the LDA Exchange-Correlation functional
  External potential:
    NoExternalPotential
 

Memory estimate:
  Process memory now: 114.61 MiB
  Calculator: 53.37 MiB
    Density: 10.82 MiB
      Arrays: 4.67 MiB
      Localized functions: 4.36 MiB
      Mixer: 1.79 MiB
    Hamiltonian: 3.16 MiB
      Arrays: 3.05 MiB
      XC: 0.00 MiB
      Poisson: 0.00 MiB
      vbar: 0.11 MiB
    Wavefunctions: 39.39 MiB
      Arrays psit_nG: 27.02 MiB
      Eigensolver: 7.95 MiB
      Projections: 0.36 MiB
      Projectors: 2.02 MiB
      PW-descriptor: 2.05 MiB

Total number of cores used: 8
Parallelization over k-points: 4
Domain decomposition: 1 x 1 x 2

Number of atoms: 12
Number of atomic orbitals: 84
Number of bands in calculation: 67
Number of valence electrons: 104
Bands to converge: occupied

... initialized

Initializing position-dependent things.

Density initialized from atomic densities
Creating initial wave functions:
  67 bands from LCAO basis set

                                  
                                  
                                  
                                  
             S       S            
                                  
         Mo     SMo    S          
                                  
           MoS    Mo S            
                S                 
                       S          
                                  
                                  
                                  
                                  

Positions:
   0 Mo     0.049671   -0.013826    6.659769    ( 0.0000,  0.0000,  0.0000)
   1 S      1.742303    0.894572    8.166586    ( 0.0000,  0.0000,  0.0000)
   2 S      1.747921    0.994730    4.953053    ( 0.0000,  0.0000,  0.0000)
   3 Mo    -1.535744    2.707619    6.548427    ( 0.0000,  0.0000,  0.0000)
   4 S      0.024196    3.480620    8.017508    ( 0.0000,  0.0000,  0.0000)
   5 S     -0.056229    3.570665    5.031425    ( 0.0000,  0.0000,  0.0000)
   6 Mo     3.089198   -0.141230    6.741565    ( 0.0000,  0.0000,  0.0000)
   7 S      4.747422    0.924740    8.047525    ( 0.0000,  0.0000,  0.0000)
   8 S      4.715562    0.929079    4.884901    ( 0.0000,  0.0000,  0.0000)
   9 Mo     1.627570    2.693897    6.565831    ( 0.0000,  0.0000,  0.0000)
  10 S      3.119829    3.857176    8.188650    ( 0.0000,  0.0000,  0.0000)
  11 S      3.074229    3.754202    4.877916    ( 0.0000,  0.0000,  0.0000)

Unit cell:
           periodic     x           y           z      points  spacing
  1. axis:    yes    6.360000    0.000000    0.000000    28     0.1967
  2. axis:    yes   -3.180000    5.507922    0.000000    28     0.1967
  3. axis:    no     0.000000   -0.000000   13.190000    60     0.2198

  Lengths:   6.360000   6.360000  13.190000
  Angles:   90.000000  90.000000 120.000000

Effective grid spacing dv^(1/3) = 0.2142

iter     time        total  log10-change:       
                    energy  eigst   dens  relforce  
   1 20:54:49  -102.078313                       
   2 20:54:52  -100.434826  -0.62  -1.13         
   3 20:54:54   -97.465379  -0.96  -1.18         
   4 20:54:56   -96.546739  -1.41  -1.30         
   5 20:54:59   -96.015325  -1.44  -1.41         
   6 20:55:01   -96.468111  -1.39  -1.66         
   7 20:55:04   -96.346197  -1.36  -1.71         
   8 20:55:06   -95.924652  -2.44  -1.66         
   9 20:55:08   -95.884441  -2.24  -2.09         
  10 20:55:10   -95.877835c -3.21  -2.55         
  11 20:55:13   -95.875704c -3.88  -2.59         
  12 20:55:15   -95.875013c -4.29  -2.80         
  13 20:55:18   -95.874275c -4.54  -2.91         
  14 20:55:20   -95.874224c -5.36c -3.03         
  15 20:55:22   -95.874000c -5.04c -3.09         
  16 20:55:25   -95.873856c -5.10c -3.21         
  17 20:55:27   -95.873800c -5.37c -3.34         
  18 20:55:29   -95.873778c -6.07c -3.48         
  19 20:55:32   -95.873748c -5.55c -3.57c        
  20 20:55:35   -95.873746c -6.61c -3.94c -3.05c 

Converged after 20 iterations.

Dipole moment: (7.337176, -2.059707, -0.035903) |e|*Ang

Energy contributions relative to reference atoms: (reference = -526675.923698)

Kinetic:        -11.225594
Potential:      -13.454894
External:        +0.000000
XC:             -70.690153
Entropy (-ST):   -0.003024
Local:           -0.501592
--------------------------
Free energy:    -95.875258
Extrapolated:   -95.873746

Showing only first 2 kpts
 Kpt  Band  Eigenvalues  Occupancy
  0    50     -0.27427    1.99998
  0    51      0.05512    1.99945
  0    52      1.79839    0.00020
  0    53      1.84968    0.00012

  1    50     -0.13055    1.99991
  1    51      0.25447    1.99597
  1    52      1.91296    0.00006
  1    53      2.01876    0.00002


Fermi level: 0.87497

Gap: 1.099 eV
Transition (v -> c):
  (s=0, k=2, n=51, [0.08, -0.08, 0.00]) -> (s=0, k=16, n=52, [0.42, 0.25, 0.00])

Forces in eV/Ang:
  0 Mo   -0.28728    1.52600   -3.59540
  1 S    -2.01549    0.53520    0.95353
  2 S    -0.95991   -1.35696    1.76583
  3 Mo   -3.57065    0.23256   -1.32497
  4 S    -0.04486    0.14899    2.50911
  5 S     0.92512    0.59413    0.32907
  6 Mo    2.88886    1.20688   -5.32398
  7 S     0.16868   -0.44580    1.05050
  8 S     0.32180   -0.68072    2.66323
  9 Mo    0.80567    0.94403   -1.20100
 10 S     0.70914   -2.36719   -0.31772
 11 S     1.06285   -0.35753    2.55489

System changes: positions 

Initializing position-dependent things.

Density initialized from wave functions
                                  
                                  
                                  
                                  
             S       S            
                                  
         Mo     SMo    S          
                                  
           MoS     MoS            
                S                 
                       S          
                                  
                                  
                                  
                                  

Positions:
   0 Mo     0.045567    0.007974    6.608406    ( 0.0000,  0.0000,  0.0000)
   1 S      1.713510    0.902217    8.180208    ( 0.0000,  0.0000,  0.0000)
   2 S      1.734208    0.975345    4.978279    ( 0.0000,  0.0000,  0.0000)
   3 Mo    -1.586753    2.710941    6.529499    ( 0.0000,  0.0000,  0.0000)
   4 S      0.023555    3.482748    8.053353    ( 0.0000,  0.0000,  0.0000)
   5 S     -0.043013    3.579152    5.036126    ( 0.0000,  0.0000,  0.0000)
   6 Mo     3.130467   -0.123989    6.665508    ( 0.0000,  0.0000,  0.0000)
   7 S      4.749832    0.918371    8.062532    ( 0.0000,  0.0000,  0.0000)
   8 S      4.720159    0.919355    4.922947    ( 0.0000,  0.0000,  0.0000)
   9 Mo     1.639079    2.707383    6.548674    ( 0.0000,  0.0000,  0.0000)
  10 S      3.129960    3.823359    8.184111    ( 0.0000,  0.0000,  0.0000)
  11 S      3.089412    3.749095    4.914414    ( 0.0000,  0.0000,  0.0000)

Unit cell:
           periodic     x           y           z      points  spacing
  1. axis:    yes    6.360000    0.000000    0.000000    28     0.1967
  2. axis:    yes   -3.180000    5.507922    0.000000    28     0.1967
  3. axis:    no     0.000000   -0.000000   13.190000    60     0.2198

  Lengths:   6.360000   6.360000  13.190000
  Angles:   90.000000  90.000000 120.000000

Effective grid spacing dv^(1/3) = 0.2142

iter     time        total  log10-change:       
                    energy  eigst   dens  relforce  
   1 20:55:38   -98.141191  -0.99                
   2 20:55:40   -97.591649  -2.16  -1.60         
   3 20:55:42   -97.202208  -1.71  -1.75         
   4 20:55:44   -97.169709  -2.81  -2.09         
   5 20:55:47   -97.147723  -2.39  -2.20         
   6 20:55:49   -97.144785c -3.36  -2.49         
   7 20:55:51   -97.140819c -3.95  -2.58         
   8 20:55:53   -97.140197c -4.25  -2.71         
   9 20:55:56   -97.139261c -4.24  -2.87         
  10 20:55:58   -97.139173c -4.99  -3.04         
  11 20:56:00   -97.139115c -4.84  -3.11         
  12 20:56:02   -97.139061c -5.75c -3.32         
  13 20:56:05   -97.139015c -5.44c -3.42         
  14 20:56:08   -97.139022c -6.26c -3.70c        
  15 20:56:11   -97.139023c -6.11c -3.76c -2.00c 

Converged after 15 iterations.

Dipole moment: (9.790384, -3.610518, -0.022810) |e|*Ang

Energy contributions relative to reference atoms: (reference = -526675.923698)

Kinetic:        -20.432003
Potential:       -6.448465
External:        +0.000000
XC:             -69.821833
Entropy (-ST):   -0.000630
Local:           -0.436407
--------------------------
Free energy:    -97.139338
Extrapolated:   -97.139023

Showing only first 2 kpts
 Kpt  Band  Eigenvalues  Occupancy
  0    50     -0.34751    1.99999
  0    51     -0.10724    1.99991
  0    52      1.97092    0.00004
  0    53      2.01536    0.00003

  1    50     -0.21067    1.99997
  1    51      0.05355    1.99954
  1    52      2.06204    0.00002
  1    53      2.21451    0.00000


Fermi level: 0.89212

Gap: 1.494 eV
Transition (v -> c):
  (s=0, k=2, n=51, [0.08, -0.08, 0.00]) -> (s=0, k=16, n=52, [0.42, 0.25, 0.00])

Forces in eV/Ang:
  0 Mo   -0.32587    0.89440   -1.97765
  1 S    -1.10070    0.09298   -0.39004
  2 S    -0.88034   -1.20368    1.23465
  3 Mo   -2.03191    0.40960   -0.22914
  4 S    -0.25930    0.47701    0.91485
  5 S     0.62095    0.40960    0.18030
  6 Mo    1.74736    1.10483   -2.74712
  7 S     0.14069   -0.30651    0.29405
  8 S     0.26832   -0.66618    2.04930
  9 Mo    0.21113    0.66523   -0.00984
 10 S     0.63970   -1.58111   -1.04837
 11 S     0.97282   -0.29273    1.85817

System changes: positions 

Initializing position-dependent things.

Density initialized from wave functions
                                   
                                   
                                   
                                   
              S       S            
                                   
                SMo     S          
         Mo                        
            MoS    Mo S            
                                   
                S       S          
                                   
                                   
                                   
                                   

Positions:
   0 Mo     0.033725    0.042827    6.530635    ( 0.0000,  0.0000,  0.0000)
   1 S      1.670179    0.907041    8.170169    ( 0.0000,  0.0000,  0.0000)
   2 S      1.701631    0.930661    5.025305    ( 0.0000,  0.0000,  0.0000)
   3 Mo    -1.666265    2.725416    6.517592    ( 0.0000,  0.0000,  0.0000)
   4 S      0.014718    3.499217    8.092025    ( 0.0000,  0.0000,  0.0000)
   5 S     -0.019243    3.594780    5.043220    ( 0.0000,  0.0000,  0.0000)
   6 Mo     3.198264   -0.083098    6.556427    ( 0.0000,  0.0000,  0.0000)
   7 S      4.755087    0.906673    8.075740    ( 0.0000,  0.0000,  0.0000)
   8 S      4.730182    0.894848    5.000149    ( 0.0000,  0.0000,  0.0000)
   9 Mo     1.648727    2.732697    6.544516    ( 0.0000,  0.0000,  0.0000)
  10 S      3.153669    3.762799    8.147947    ( 0.0000,  0.0000,  0.0000)
  11 S      3.125419    3.738140    4.984862    ( 0.0000,  0.0000,  0.0000)

Unit cell:
           periodic     x           y           z      points  spacing
  1. axis:    yes    6.360000    0.000000    0.000000    28     0.1967
  2. axis:    yes   -3.180000    5.507922    0.000000    28     0.1967
  3. axis:    no     0.000000   -0.000000   13.190000    60     0.2198

  Lengths:   6.360000   6.360000  13.190000
  Angles:   90.000000  90.000000 120.000000

Effective grid spacing dv^(1/3) = 0.2142

iter     time        total  log10-change:       
                    energy  eigst   dens  relforce  
   1 20:56:14   -99.504331  -0.68                
   2 20:56:17   -98.751612  -1.83  -1.51         
   3 20:56:19   -98.090281  -1.42  -1.62         
   4 20:56:22   -98.024786  -2.54  -1.94         
   5 20:56:24   -97.968173  -2.27  -2.03         
   6 20:56:27   -97.983946  -2.53  -2.32         
   7 20:56:29   -97.958355c -3.20  -2.34         
   8 20:56:31   -97.959704c -4.20  -2.71         
   9 20:56:33   -97.957676c -4.06  -2.73         
  10 20:56:35   -97.957577c -4.21  -3.03         
  11 20:56:38   -97.957455c -5.41c -3.22         
  12 20:56:40   -97.957363c -5.19c -3.28         
  13 20:56:43   -97.957355c -5.65c -3.42         
  14 20:56:45   -97.957345c -5.48c -3.50         
  15 20:56:48   -97.957350c -5.94c -3.66c        
  16 20:56:50   -97.957347c -6.13c -3.74c -1.47c 

Converged after 16 iterations.

Dipole moment: (14.021350, -6.791758, 0.014020) |e|*Ang

Energy contributions relative to reference atoms: (reference = -526675.923698)

Kinetic:        -14.895121
Potential:      -11.193170
External:        +0.000000
XC:             -71.433781
Entropy (-ST):   -0.000306
Local:           -0.435122
--------------------------
Free energy:    -97.957500
Extrapolated:   -97.957347

Showing only first 2 kpts
 Kpt  Band  Eigenvalues  Occupancy
  0    50     -0.31058    1.99999
  0    51     -0.28813    1.99999
  0    52      2.08481    0.00001
  0    53      2.13892    0.00001

  1    50     -0.31436    1.99999
  1    51     -0.00074    1.99976
  1    52      2.18779    0.00001
  1    53      2.22757    0.00000


Fermi level: 0.90104

Gap: 1.611 eV
Transition (v -> c):
  (s=0, k=2, n=51, [0.08, -0.08, 0.00]) -> (s=0, k=16, n=52, [0.42, 0.25, 0.00])

Forces in eV/Ang:
  0 Mo   -0.14063   -0.09146    0.72720
  1 S    -0.23053   -0.15790   -1.35287
  2 S    -0.55219   -0.35783   -0.00669
  3 Mo    0.56454    0.34500    0.94754
  4 S    -0.37175    0.82080   -0.58909
  5 S     0.14485   -0.00163   -0.20289
  6 Mo   -0.01888    0.27051    0.83990
  7 S     0.08956   -0.08279   -0.39070
  8 S     0.26712   -0.09201    0.15338
  9 Mo   -0.58262    0.01391    0.87983
 10 S     0.33748   -0.46231   -1.21450
 11 S     0.49152   -0.20506    0.22371

System changes: positions 

Initializing position-dependent things.

Density initialized from wave functions
                                   
                                   
                                   
                                   
              S       S            
                                   
         Mo     SMo     S          
                                   
            MoS    Mo S            
                                   
                S       S          
                                   
                                   
                                   
                                   

Positions:
   0 Mo     0.031355    0.043852    6.535401    ( 0.0000,  0.0000,  0.0000)
   1 S      1.663838    0.905697    8.152829    ( 0.0000,  0.0000,  0.0000)
   2 S      1.692482    0.923683    5.027826    ( 0.0000,  0.0000,  0.0000)
   3 Mo    -1.663735    2.730550    6.528779    ( 0.0000,  0.0000,  0.0000)
   4 S      0.009478    3.510904    8.087701    ( 0.0000,  0.0000,  0.0000)
   5 S     -0.015820    3.595639    5.040859    ( 0.0000,  0.0000,  0.0000)
   6 Mo     3.202366   -0.077577    6.560079    ( 0.0000,  0.0000,  0.0000)
   7 S      4.756594    0.904842    8.071925    ( 0.0000,  0.0000,  0.0000)
   8 S      4.734415    0.892603    5.006197    ( 0.0000,  0.0000,  0.0000)
   9 Mo     1.641810    2.734290    6.554886    ( 0.0000,  0.0000,  0.0000)
  10 S      3.159437    3.752741    8.130601    ( 0.0000,  0.0000,  0.0000)
  11 S      3.133857    3.734729    4.991781    ( 0.0000,  0.0000,  0.0000)

Unit cell:
           periodic     x           y           z      points  spacing
  1. axis:    yes    6.360000    0.000000    0.000000    28     0.1967
  2. axis:    yes   -3.180000    5.507922    0.000000    28     0.1967
  3. axis:    no     0.000000   -0.000000   13.190000    60     0.2198

  Lengths:   6.360000   6.360000  13.190000
  Angles:   90.000000  90.000000 120.000000

Effective grid spacing dv^(1/3) = 0.2142

iter     time        total  log10-change:       
                    energy  eigst   dens  relforce  
   1 20:56:54   -98.094136  -2.42                
   2 20:56:56   -98.077050  -3.60  -2.35         
   3 20:56:58   -98.064594c -3.13  -2.50         
   4 20:57:01   -98.063965c -4.34  -2.84         
   5 20:57:03   -98.062666c -4.02  -2.90         
   6 20:57:05   -98.062859c -4.64  -3.31         
   7 20:57:07   -98.062564c -5.36c -3.27         
   8 20:57:10   -98.062582c -5.61c -3.53c        
   9 20:57:14   -98.062531c -5.68c -3.63c -1.25c 

Converged after 9 iterations.

Dipole moment: (14.110027, -7.099598, 0.008717) |e|*Ang

Energy contributions relative to reference atoms: (reference = -526675.923698)

Kinetic:        -11.710186
Potential:      -13.803183
External:        +0.000000
XC:             -72.084583
Entropy (-ST):   -0.000299
Local:           -0.464429
--------------------------
Free energy:    -98.062680
Extrapolated:   -98.062531

Showing only first 2 kpts
 Kpt  Band  Eigenvalues  Occupancy
  0    50     -0.32793    1.99999
  0    51     -0.29003    1.99999
  0    52      2.08680    0.00001
  0    53      2.15760    0.00001

  1    50     -0.33952    1.99999
  1    51      0.00671    1.99974
  1    52      2.19526    0.00000
  1    53      2.23145    0.00000


Fermi level: 0.90323

Gap: 1.596 eV
Transition (v -> c):
  (s=0, k=2, n=51, [0.08, -0.08, 0.00]) -> (s=0, k=16, n=52, [0.42, 0.25, 0.00])

Forces in eV/Ang:
  0 Mo   -0.11879   -0.20896    0.51503
  1 S    -0.18246   -0.13009   -1.01099
  2 S    -0.43890   -0.22660    0.04971
  3 Mo    0.62640    0.19125    0.55099
  4 S    -0.30915    0.79570   -0.34249
  5 S     0.10436    0.04504   -0.08164
  6 Mo   -0.15138    0.17907    0.56828
  7 S     0.08853   -0.02860   -0.16084
  8 S     0.22662    0.01332    0.13962
  9 Mo   -0.44671   -0.03112    0.42393
 10 S     0.24253   -0.36021   -0.84456
 11 S     0.35364   -0.20995    0.25842

System changes: positions 

Initializing position-dependent things.

Density initialized from wave functions
                                   
                                   
                                   
                                   
              S       S            
                                   
         Mo     SMo     S          
                                   
            MoS    Mo S            
                                   
                S       S          
                                   
                                   
                                   
                                   

Positions:
   0 Mo     0.023697    0.039363    6.549406    ( 0.0000,  0.0000,  0.0000)
   1 S      1.645095    0.900900    8.100779    ( 0.0000,  0.0000,  0.0000)
   2 S      1.664201    0.905365    5.037488    ( 0.0000,  0.0000,  0.0000)
   3 Mo    -1.644758    2.742457    6.554735    ( 0.0000,  0.0000,  0.0000)
   4 S     -0.007706    3.554834    8.078840    ( 0.0000,  0.0000,  0.0000)
   5 S     -0.006113    3.600315    5.037208    ( 0.0000,  0.0000,  0.0000)
   6 Mo     3.206760   -0.062668    6.569799    ( 0.0000,  0.0000,  0.0000)
   7 S      4.762112    0.901196    8.066748    ( 0.0000,  0.0000,  0.0000)
   8 S      4.748286    0.890241    5.024595    ( 0.0000,  0.0000,  0.0000)
   9 Mo     1.620340    2.736647    6.574543    ( 0.0000,  0.0000,  0.0000)
  10 S      3.175919    3.722803    8.082118    ( 0.0000,  0.0000,  0.0000)
  11 S      3.157986    3.721840    5.016124    ( 0.0000,  0.0000,  0.0000)

Unit cell:
           periodic     x           y           z      points  spacing
  1. axis:    yes    6.360000    0.000000    0.000000    28     0.1967
  2. axis:    yes   -3.180000    5.507922    0.000000    28     0.1967
  3. axis:    no     0.000000   -0.000000   13.190000    60     0.2198

  Lengths:   6.360000   6.360000  13.190000
  Angles:   90.000000  90.000000 120.000000

Effective grid spacing dv^(1/3) = 0.2142

iter     time        total  log10-change:       
                    energy  eigst   dens  relforce  
   1 20:57:18   -98.370077  -1.60                
   2 20:57:20   -98.293523  -2.75  -2.02         
   3 20:57:23   -98.231645  -2.40  -2.14         
   4 20:57:25   -98.226637  -3.59  -2.44         
   5 20:57:27   -98.220265c -3.42  -2.53         
   6 20:57:30   -98.221755c -3.69  -2.88         
   7 20:57:32   -98.219697c -4.39  -2.87         
   8 20:57:34   -98.219863c -5.15c -3.13         
   9 20:57:36   -98.219551c -4.83  -3.23         
  10 20:57:39   -98.219535c -5.61c -3.51         
  11 20:57:41   -98.219523c -6.10c -3.60c        
  12 20:57:44   -98.219518c -5.99c -3.73c -1.53c 

Converged after 12 iterations.

Dipole moment: (14.001384, -7.635601, -0.004994) |e|*Ang

Energy contributions relative to reference atoms: (reference = -526675.923698)

Kinetic:         -1.885463
Potential:      -21.729419
External:        +0.000000
XC:             -74.089461
Entropy (-ST):   -0.000362
Local:           -0.514995
--------------------------
Free energy:    -98.219699
Extrapolated:   -98.219518

Showing only first 2 kpts
 Kpt  Band  Eigenvalues  Occupancy
  0    50     -0.38458    2.00000
  0    51     -0.26765    1.99998
  0    52      2.06173    0.00002
  0    53      2.20671    0.00000

  1    50     -0.40377    2.00000
  1    51      0.05240    1.99961
  1    52      2.20013    0.00000
  1    53      2.22864    0.00000


Fermi level: 0.90783

Gap: 1.503 eV
Transition (v -> c):
  (s=0, k=2, n=51, [0.08, -0.08, 0.00]) -> (s=0, k=11, n=52, [0.25, 0.42, 0.00])

Forces in eV/Ang:
  0 Mo   -0.06817   -0.38278   -0.02776
  1 S    -0.10961   -0.06427   -0.02659
  2 S    -0.23134    0.03024    0.04530
  3 Mo    0.61275   -0.17052   -0.31479
  4 S    -0.06676    0.59741    0.20722
  5 S     0.01803    0.15644    0.10367
  6 Mo   -0.30134    0.00980   -0.10055
  7 S     0.07626    0.08535    0.32055
  8 S     0.13436    0.18514    0.04247
  9 Mo   -0.16670   -0.05009   -0.46373
 10 S     0.01362   -0.11565    0.17138
 11 S     0.06995   -0.20489    0.17035

System changes: positions 

Initializing position-dependent things.

Density initialized from wave functions
                                   
                                   
                                   
                                   
              S       S            
                                   
         Mo     SMo     S          
                                   
           Mo S    Mo S            
                                   
                S       S          
                                   
                                   
                                   
                                   

Positions:
   0 Mo     0.020926    0.032669    6.552420    ( 0.0000,  0.0000,  0.0000)
   1 S      1.639243    0.898780    8.088565    ( 0.0000,  0.0000,  0.0000)
   2 S      1.654196    0.901589    5.040044    ( 0.0000,  0.0000,  0.0000)
   3 Mo    -1.631233    2.742652    6.556254    ( 0.0000,  0.0000,  0.0000)
   4 S     -0.012512    3.573645    8.079613    ( 0.0000,  0.0000,  0.0000)
   5 S     -0.003662    3.603689    5.037727    ( 0.0000,  0.0000,  0.0000)
   6 Mo     3.203322   -0.059077    6.570913    ( 0.0000,  0.0000,  0.0000)
   7 S      4.764494    0.901640    8.070142    ( 0.0000,  0.0000,  0.0000)
   8 S      4.753467    0.892367    5.029192    ( 0.0000,  0.0000,  0.0000)
   9 Mo     1.612769    2.736522    6.572587    ( 0.0000,  0.0000,  0.0000)
  10 S      3.179867    3.714364    8.073727    ( 0.0000,  0.0000,  0.0000)
  11 S      3.164592    3.715865    5.023822    ( 0.0000,  0.0000,  0.0000)

Unit cell:
           periodic     x           y           z      points  spacing
  1. axis:    yes    6.360000    0.000000    0.000000    28     0.1967
  2. axis:    yes   -3.180000    5.507922    0.000000    28     0.1967
  3. axis:    no     0.000000   -0.000000   13.190000    60     0.2198

  Lengths:   6.360000   6.360000  13.190000
  Angles:   90.000000  90.000000 120.000000

Effective grid spacing dv^(1/3) = 0.2142

iter     time        total  log10-change:       
                    energy  eigst   dens  relforce  
   1 20:57:48   -98.250818  -2.65                
   2 20:57:50   -98.250067  -3.80  -2.78         
   3 20:57:52   -98.248274c -3.89  -2.83         
   4 20:57:54   -98.248034c -5.02c -3.11         
   5 20:57:57   -98.247906c -4.75  -3.21         
   6 20:57:59   -98.247951c -4.99  -3.40         
   7 20:58:01   -98.247859c -5.58c -3.50         
   8 20:58:04   -98.247866c -6.27c -3.71c        
   9 20:58:07   -98.247846c -5.89c -3.80c -1.18c 

Converged after 9 iterations.

Dipole moment: (13.738849, -7.529444, -0.004258) |e|*Ang

Energy contributions relative to reference atoms: (reference = -526675.923698)

Kinetic:         +0.057911
Potential:      -23.292492
External:        +0.000000
XC:             -74.487112
Entropy (-ST):   -0.000380
Local:           -0.525963
--------------------------
Free energy:    -98.248036
Extrapolated:   -98.247846

Showing only first 2 kpts
 Kpt  Band  Eigenvalues  Occupancy
  0    50     -0.39454    2.00000
  0    51     -0.26574    1.99998
  0    52      2.06011    0.00002
  0    53      2.22460    0.00000

  1    50     -0.41424    2.00000
  1    51      0.06197    1.99959
  1    52      2.20201    0.00000
  1    53      2.23260    0.00000


Fermi level: 0.91050

Gap: 1.483 eV
Transition (v -> c):
  (s=0, k=2, n=51, [0.08, -0.08, 0.00]) -> (s=0, k=11, n=52, [0.25, 0.42, 0.00])

Forces in eV/Ang:
  0 Mo   -0.07120   -0.32419   -0.07584
  1 S    -0.12369   -0.00750    0.15521
  2 S    -0.18464    0.04520   -0.04428
  3 Mo    0.39740   -0.19234   -0.30972
  4 S     0.04739    0.44882    0.24370
  5 S     0.02452    0.18132    0.01201
  6 Mo   -0.19046    0.05442   -0.20247
  7 S     0.05843    0.05624    0.30462
  8 S     0.07806    0.13120   -0.00928
  9 Mo   -0.05532   -0.01969   -0.40744
 10 S    -0.02934   -0.14470    0.27385
 11 S     0.04867   -0.23975    0.05658

System changes: positions 

Initializing position-dependent things.

Density initialized from wave functions
                                  
                                  
                                  
                                  
             S       S            
                                  
         Mo     SMo    S          
                                  
           MoS     MoS            
                                  
                S      S          
                                  
                                  
                                  
                                  

Positions:
   0 Mo     0.014729    0.016258    6.555230    ( 0.0000,  0.0000,  0.0000)
   1 S      1.626828    0.895897    8.073845    ( 0.0000,  0.0000,  0.0000)
   2 S      1.634351    0.896059    5.041834    ( 0.0000,  0.0000,  0.0000)
   3 Mo    -1.604689    2.739037    6.553345    ( 0.0000,  0.0000,  0.0000)
   4 S     -0.017686    3.611415    8.085809    ( 0.0000,  0.0000,  0.0000)
   5 S      0.001089    3.613355    5.037089    ( 0.0000,  0.0000,  0.0000)
   6 Mo     3.195987   -0.050884    6.567366    ( 0.0000,  0.0000,  0.0000)
   7 S      4.769327    0.902933    8.081166    ( 0.0000,  0.0000,  0.0000)
   8 S      4.762743    0.897257    5.036043    ( 0.0000,  0.0000,  0.0000)
   9 Mo     1.600693    2.736645    6.563113    ( 0.0000,  0.0000,  0.0000)
  10 S      3.185300    3.696810    8.066384    ( 0.0000,  0.0000,  0.0000)
  11 S      3.176529    3.700537    5.035832    ( 0.0000,  0.0000,  0.0000)

Unit cell:
           periodic     x           y           z      points  spacing
  1. axis:    yes    6.360000    0.000000    0.000000    28     0.1967
  2. axis:    yes   -3.180000    5.507922    0.000000    28     0.1967
  3. axis:    no     0.000000   -0.000000   13.190000    60     0.2198

  Lengths:   6.360000   6.360000  13.190000
  Angles:   90.000000  90.000000 120.000000

Effective grid spacing dv^(1/3) = 0.2142

iter     time        total  log10-change:       
                    energy  eigst   dens  relforce  
   1 20:58:10   -98.295554  -2.09                
   2 20:58:13   -98.292421  -3.22  -2.52         
   3 20:58:15   -98.286914c -3.37  -2.59         
   4 20:58:17   -98.286005c -4.48  -2.82         
   5 20:58:19   -98.285470c -4.09  -2.91         
   6 20:58:22   -98.285740c -4.45  -3.16         
   7 20:58:24   -98.285315c -4.90  -3.19         
   8 20:58:26   -98.285357c -5.77c -3.50         
   9 20:58:29   -98.285286c -5.46c -3.52c        
  10 20:58:32   -98.285283c -5.78c -3.80c -0.84  
  11 20:58:35   -98.285280c -6.85c -3.99c -1.64c 

Converged after 11 iterations.

Dipole moment: (13.309181, -7.215009, -0.002175) |e|*Ang

Energy contributions relative to reference atoms: (reference = -526675.923698)

Kinetic:         +1.594063
Potential:      -24.538335
External:        +0.000000
XC:             -74.808909
Entropy (-ST):   -0.000392
Local:           -0.531902
--------------------------
Free energy:    -98.285476
Extrapolated:   -98.285280

Showing only first 2 kpts
 Kpt  Band  Eigenvalues  Occupancy
  0    50     -0.40187    2.00000
  0    51     -0.27063    1.99999
  0    52      2.06210    0.00002
  0    53      2.25020    0.00000

  1    50     -0.42146    2.00000
  1    51      0.06618    1.99957
  1    52      2.20074    0.00001
  1    53      2.23947    0.00000


Fermi level: 0.91162

Gap: 1.470 eV
Transition (v -> c):
  (s=0, k=2, n=51, [0.08, -0.08, 0.00]) -> (s=0, k=11, n=52, [0.25, 0.42, 0.00])

Forces in eV/Ang:
  0 Mo   -0.04834   -0.17203   -0.01412
  1 S    -0.13009    0.04578    0.30177
  2 S    -0.13700    0.06726   -0.16247
  3 Mo    0.02970   -0.09970   -0.03018
  4 S     0.18349    0.15986    0.13784
  5 S     0.02560    0.19533   -0.13398
  6 Mo   -0.00917    0.14912   -0.15427
  7 S     0.02696    0.00027    0.13111
  8 S     0.03530    0.02462   -0.13010
  9 Mo    0.07990    0.01518   -0.09190
 10 S    -0.04966   -0.16824    0.29946
 11 S    -0.00420   -0.24207   -0.14013

System changes: positions 

Initializing position-dependent things.

Density initialized from wave functions
                                  
                                  
                                  
                                  
             S       S            
                                  
         Mo    S Mo    S          
                                  
           MoS     MoS            
                                  
               S       S          
                                  
                                  
                                  
                                  

Positions:
   0 Mo     0.011445    0.005967    6.556770    ( 0.0000,  0.0000,  0.0000)
   1 S      1.619949    0.895320    8.073463    ( 0.0000,  0.0000,  0.0000)
   2 S      1.623956    0.895460    5.039303    ( 0.0000,  0.0000,  0.0000)
   3 Mo    -1.592337    2.735656    6.551739    ( 0.0000,  0.0000,  0.0000)
   4 S     -0.016422    3.629657    8.090328    ( 0.0000,  0.0000,  0.0000)
   5 S      0.003200    3.620788    5.034525    ( 0.0000,  0.0000,  0.0000)
   6 Mo     3.191973   -0.045148    6.564269    ( 0.0000,  0.0000,  0.0000)
   7 S      4.771765    0.903675    8.087933    ( 0.0000,  0.0000,  0.0000)
   8 S      4.767186    0.899962    5.035810    ( 0.0000,  0.0000,  0.0000)
   9 Mo     1.597024    2.736736    6.557581    ( 0.0000,  0.0000,  0.0000)
  10 S      3.186413    3.687364    8.069400    ( 0.0000,  0.0000,  0.0000)
  11 S      3.180899    3.690049    5.037600    ( 0.0000,  0.0000,  0.0000)

Unit cell:
           periodic     x           y           z      points  spacing
  1. axis:    yes    6.360000    0.000000    0.000000    28     0.1967
  2. axis:    yes   -3.180000    5.507922    0.000000    28     0.1967
  3. axis:    no     0.000000   -0.000000   13.190000    60     0.2198

  Lengths:   6.360000   6.360000  13.190000
  Angles:   90.000000  90.000000 120.000000

Effective grid spacing dv^(1/3) = 0.2142

iter     time        total  log10-change:       
                    energy  eigst   dens  relforce  
   1 20:58:38   -98.302195  -2.67                
   2 20:58:40   -98.300559  -3.81  -2.80         
   3 20:58:42   -98.298999c -3.89  -2.90         
   4 20:58:44   -98.298823c -5.13c -3.12         
   5 20:58:46   -98.298670c -4.75  -3.20         
   6 20:58:49   -98.298751c -5.03c -3.53c        
   7 20:58:52   -98.298641c -5.56c -3.51  -0.63  
   8 20:58:55   -98.298650c -6.53c -3.89c -0.97  
   9 20:58:58   -98.298637c -6.37c -3.91c -1.02c 

Converged after 9 iterations.

Dipole moment: (13.169140, -7.021236, 0.000755) |e|*Ang

Energy contributions relative to reference atoms: (reference = -526675.923698)

Kinetic:         +0.373279
Potential:      -23.565102
External:        +0.000000
XC:             -74.586075
Entropy (-ST):   -0.000371
Local:           -0.520555
--------------------------
Free energy:    -98.298823
Extrapolated:   -98.298637

Showing only first 2 kpts
 Kpt  Band  Eigenvalues  Occupancy
  0    50     -0.39572    2.00000
  0    51     -0.27764    1.99999
  0    52      2.06988    0.00002
  0    53      2.25517    0.00000

  1    50     -0.41515    2.00000
  1    51      0.05910    1.99961
  1    52      2.20376    0.00000
  1    53      2.24338    0.00000


Fermi level: 0.91252

Gap: 1.487 eV
Transition (v -> c):
  (s=0, k=2, n=51, [0.08, -0.08, 0.00]) -> (s=0, k=11, n=52, [0.25, 0.42, 0.00])

Forces in eV/Ang:
  0 Mo   -0.02356   -0.07135    0.00882
  1 S    -0.11947    0.08802    0.23689
  2 S    -0.11378    0.03644   -0.16622
  3 Mo   -0.14492    0.00065    0.13145
  4 S     0.22135    0.01491    0.03147
  5 S     0.02402    0.19478   -0.17542
  6 Mo    0.07086    0.19383   -0.09511
  7 S    -0.00133   -0.02943   -0.00330
  8 S     0.01306   -0.05385   -0.13763
  9 Mo    0.10807    0.01592    0.10770
 10 S    -0.03746   -0.21501    0.18755
 11 S     0.01099   -0.21552   -0.17049

System changes: positions 

Initializing position-dependent things.

Density initialized from wave functions
                                  
                                  
                                  
                                  
             S       S            
                                  
         Mo    S Mo    S          
                                  
           MoS     MoS            
                                  
               S       S          
                                  
                                  
                                  
                                  

Positions:
   0 Mo     0.007796   -0.005234    6.557745    ( 0.0000,  0.0000,  0.0000)
   1 S      1.610658    0.896571    8.077102    ( 0.0000,  0.0000,  0.0000)
   2 S      1.611245    0.895131    5.034305    ( 0.0000,  0.0000,  0.0000)
   3 Mo    -1.583574    2.732811    6.552798    ( 0.0000,  0.0000,  0.0000)
   4 S     -0.010999    3.647926    8.095358    ( 0.0000,  0.0000,  0.0000)
   5 S      0.005855    3.632113    5.028913    ( 0.0000,  0.0000,  0.0000)
   6 Mo     3.189726   -0.035360    6.558726    ( 0.0000,  0.0000,  0.0000)
   7 S      4.774100    0.903785    8.094366    ( 0.0000,  0.0000,  0.0000)
   8 S      4.771939    0.901278    5.033696    ( 0.0000,  0.0000,  0.0000)
   9 Mo     1.595467    2.737183    6.554363    ( 0.0000,  0.0000,  0.0000)
  10 S      3.187048    3.673285    8.075359    ( 0.0000,  0.0000,  0.0000)
  11 S      3.185759    3.675592    5.036907    ( 0.0000,  0.0000,  0.0000)

Unit cell:
           periodic     x           y           z      points  spacing
  1. axis:    yes    6.360000    0.000000    0.000000    28     0.1967
  2. axis:    yes   -3.180000    5.507922    0.000000    28     0.1967
  3. axis:    no     0.000000   -0.000000   13.190000    60     0.2198

  Lengths:   6.360000   6.360000  13.190000
  Angles:   90.000000  90.000000 120.000000

Effective grid spacing dv^(1/3) = 0.2142

iter     time        total  log10-change:       
                    energy  eigst   dens  relforce  
   1 20:59:02   -98.313558  -2.61                
   2 20:59:04   -98.312711  -3.76  -2.83         
   3 20:59:06   -98.311608c -3.98  -2.90         
   4 20:59:09   -98.311451c -5.09c -3.13         
   5 20:59:11   -98.311347c -4.84  -3.20         
   6 20:59:13   -98.311422c -5.07c -3.48         
   7 20:59:15   -98.311315c -5.50c -3.50         
   8 20:59:18   -98.311320c -6.81c -3.81c        
   9 20:59:21   -98.311309c -6.36c -3.86c -1.08c 

Converged after 9 iterations.

Dipole moment: (13.228795, -6.950616, 0.002280) |e|*Ang

Energy contributions relative to reference atoms: (reference = -526675.923698)

Kinetic:         -1.941117
Potential:      -21.720287
External:        +0.000000
XC:             -74.145890
Entropy (-ST):   -0.000336
Local:           -0.503847
--------------------------
Free energy:    -98.311478
Extrapolated:   -98.311309

Showing only first 2 kpts
 Kpt  Band  Eigenvalues  Occupancy
  0    50     -0.38367    2.00000
  0    51     -0.28453    1.99999
  0    52      2.08288    0.00002
  0    53      2.25354    0.00000

  1    50     -0.40418    2.00000
  1    51      0.04845    1.99966
  1    52      2.21259    0.00000
  1    53      2.24998    0.00000


Fermi level: 0.91535

Gap: 1.516 eV
Transition (v -> c):
  (s=0, k=2, n=51, [0.08, -0.08, 0.00]) -> (s=0, k=16, n=52, [0.42, 0.25, 0.00])

Forces in eV/Ang:
  0 Mo    0.01440   -0.00220    0.05397
  1 S    -0.06891    0.06849    0.09592
  2 S    -0.07469    0.03585   -0.10212
  3 Mo   -0.15482    0.09028    0.19306
  4 S     0.19252   -0.07081   -0.12408
  5 S     0.00591    0.13147   -0.08736
  6 Mo    0.05735    0.15633    0.03705
  7 S    -0.01852   -0.05869   -0.12453
  8 S     0.01436   -0.06430   -0.11229
  9 Mo    0.05374    0.00024    0.19618
 10 S    -0.02082   -0.16073    0.07596
 11 S     0.00692   -0.15013   -0.14670

System changes: positions 

Initializing position-dependent things.

Density initialized from wave functions
                                  
                                  
                                  
                                  
             S       S            
                                  
         Mo    S Mo    S          
                                  
           MoS     MoS            
                                  
               S       S          
                                  
                                  
                                  
                                  

Positions:
   0 Mo     0.006086   -0.012543    6.559555    ( 0.0000,  0.0000,  0.0000)
   1 S      1.604269    0.898495    8.081962    ( 0.0000,  0.0000,  0.0000)
   2 S      1.602666    0.896379    5.029205    ( 0.0000,  0.0000,  0.0000)
   3 Mo    -1.580309    2.732445    6.556259    ( 0.0000,  0.0000,  0.0000)
   4 S     -0.003842    3.657332    8.095962    ( 0.0000,  0.0000,  0.0000)
   5 S      0.007237    3.641321    5.024402    ( 0.0000,  0.0000,  0.0000)
   6 Mo     3.188519   -0.027099    6.556571    ( 0.0000,  0.0000,  0.0000)
   7 S      4.775119    0.902880    8.096138    ( 0.0000,  0.0000,  0.0000)
   8 S      4.774994    0.901378    5.029634    ( 0.0000,  0.0000,  0.0000)
   9 Mo     1.595601    2.737164    6.555132    ( 0.0000,  0.0000,  0.0000)
  10 S      3.186630    3.662688    8.081685    ( 0.0000,  0.0000,  0.0000)
  11 S      3.188136    3.664146    5.033177    ( 0.0000,  0.0000,  0.0000)

Unit cell:
           periodic     x           y           z      points  spacing
  1. axis:    yes    6.360000    0.000000    0.000000    28     0.1967
  2. axis:    yes   -3.180000    5.507922    0.000000    28     0.1967
  3. axis:    no     0.000000   -0.000000   13.190000    60     0.2198

  Lengths:   6.360000   6.360000  13.190000
  Angles:   90.000000  90.000000 120.000000

Effective grid spacing dv^(1/3) = 0.2142

iter     time        total  log10-change:       
                    energy  eigst   dens  relforce  
   1 20:59:24   -98.319670  -2.94                
   2 20:59:27   -98.319411  -4.09  -2.98         
   3 20:59:29   -98.318809c -4.31  -3.03         
   4 20:59:32   -98.318721c -5.36c -3.27         
   5 20:59:34   -98.318657c -5.05c -3.34         
   6 20:59:37   -98.318712c -5.30c -3.60c        
   7 20:59:40   -98.318646c -5.84c -3.63c -0.71  
   8 20:59:43   -98.318648c -7.28c -3.89c -1.70c 

Converged after 8 iterations.

Dipole moment: (13.314589, -6.974234, 0.002088) |e|*Ang

Energy contributions relative to reference atoms: (reference = -526675.923698)

Kinetic:         -3.969942
Potential:      -20.106649
External:        +0.000000
XC:             -73.753300
Entropy (-ST):   -0.000308
Local:           -0.488603
--------------------------
Free energy:    -98.318802
Extrapolated:   -98.318648

Showing only first 2 kpts
 Kpt  Band  Eigenvalues  Occupancy
  0    50     -0.37319    2.00000
  0    51     -0.28941    1.99999
  0    52      2.09397    0.00002
  0    53      2.24835    0.00000

  1    50     -0.39519    2.00000
  1    51      0.03923    1.99969
  1    52      2.22368    0.00000
  1    53      2.25150    0.00000


Fermi level: 0.91794

Gap: 1.542 eV
Transition (v -> c):
  (s=0, k=2, n=51, [0.08, -0.08, 0.00]) -> (s=0, k=16, n=52, [0.42, 0.25, 0.00])

Forces in eV/Ang:
  0 Mo    0.03073    0.02489   -0.00718
  1 S    -0.04237    0.02204    0.00918
  2 S    -0.05573    0.02216    0.01437
  3 Mo   -0.09815    0.10401    0.08653
  4 S     0.11762   -0.08170   -0.15723
  5 S    -0.00782    0.06374    0.05134
  6 Mo    0.02412    0.08904    0.03352
  7 S    -0.00491   -0.05662   -0.14015
  8 S     0.03159   -0.03849    0.00108
  9 Mo   -0.00213   -0.00520    0.10832
 10 S     0.00226   -0.07367    0.01713
 11 S     0.00706   -0.06750   -0.03518

System changes: positions 

Initializing position-dependent things.

Density initialized from wave functions
                                  
                                  
                                  
                                  
             S       S            
                                  
         Mo    S Mo    S          
                                  
           MoS     MoS            
                                  
               S       S          
                                  
                                  
                                  
                                  

Positions:
   0 Mo     0.006107   -0.014142    6.559241    ( 0.0000,  0.0000,  0.0000)
   1 S      1.601243    0.899586    8.084338    ( 0.0000,  0.0000,  0.0000)
   2 S      1.598936    0.897140    5.028112    ( 0.0000,  0.0000,  0.0000)
   3 Mo    -1.581886    2.734192    6.558521    ( 0.0000,  0.0000,  0.0000)
   4 S      0.000764    3.658477    8.093712    ( 0.0000,  0.0000,  0.0000)
   5 S      0.007607    3.645516    5.024061    ( 0.0000,  0.0000,  0.0000)
   6 Mo     3.189032   -0.022684    6.555487    ( 0.0000,  0.0000,  0.0000)
   7 S      4.775377    0.901484    8.094309    ( 0.0000,  0.0000,  0.0000)
   8 S      4.776526    0.900614    5.028729    ( 0.0000,  0.0000,  0.0000)
   9 Mo     1.595968    2.737217    6.556984    ( 0.0000,  0.0000,  0.0000)
  10 S      3.186532    3.657846    8.084410    ( 0.0000,  0.0000,  0.0000)
  11 S      3.188959    3.659268    5.031598    ( 0.0000,  0.0000,  0.0000)

Unit cell:
           periodic     x           y           z      points  spacing
  1. axis:    yes    6.360000    0.000000    0.000000    28     0.1967
  2. axis:    yes   -3.180000    5.507922    0.000000    28     0.1967
  3. axis:    no     0.000000   -0.000000   13.190000    60     0.2198

  Lengths:   6.360000   6.360000  13.190000
  Angles:   90.000000  90.000000 120.000000

Effective grid spacing dv^(1/3) = 0.2142

iter     time        total  log10-change:       
                    energy  eigst   dens  relforce  
   1 20:59:46   -98.322816  -3.48                
   2 20:59:48   -98.322277  -4.63  -3.04         
   3 20:59:51   -98.321726c -4.46  -3.13         
   4 20:59:53   -98.321677c -5.59c -3.41         
   5 20:59:55   -98.321602c -5.09c -3.49         
   6 20:59:58   -98.321607c -5.76c -3.83c        
   7 21:00:01   -98.321594c -6.44c -3.87c -0.89  
   8 21:00:04   -98.321595c -6.73c -4.08c -0.96  
   9 21:00:07   -98.321592c -6.91c -4.20c -1.07c 

Converged after 9 iterations.

Dipole moment: (13.408731, -7.085451, 0.000655) |e|*Ang

Energy contributions relative to reference atoms: (reference = -526675.923698)

Kinetic:         -4.111554
Potential:      -20.018069
External:        +0.000000
XC:             -73.699037
Entropy (-ST):   -0.000303
Local:           -0.492781
--------------------------
Free energy:    -98.321744
Extrapolated:   -98.321592

Showing only first 2 kpts
 Kpt  Band  Eigenvalues  Occupancy
  0    50     -0.37251    2.00000
  0    51     -0.28881    1.99999
  0    52      2.09573    0.00002
  0    53      2.24515    0.00000

  1    50     -0.39538    2.00000
  1    51      0.03799    1.99970
  1    52      2.22881    0.00000
  1    53      2.24833    0.00000


Fermi level: 0.91814

Gap: 1.547 eV
Transition (v -> c):
  (s=0, k=2, n=51, [0.08, -0.08, 0.00]) -> (s=0, k=16, n=52, [0.42, 0.25, 0.00])

Forces in eV/Ang:
  0 Mo    0.01564   -0.01456    0.01072
  1 S    -0.01379    0.01191   -0.00250
  2 S    -0.00619    0.03412    0.02013
  3 Mo   -0.02453    0.04367    0.02777
  4 S     0.06933   -0.06189   -0.10973
  5 S    -0.00810    0.04823    0.06298
  6 Mo   -0.01514    0.04645    0.04332
  7 S     0.00017   -0.02437   -0.10429
  8 S     0.00837   -0.00523    0.01084
  9 Mo    0.00030   -0.01191    0.04015
 10 S    -0.00821   -0.02013    0.01530
 11 S    -0.01999   -0.03510   -0.00946

System changes: positions 

Initializing position-dependent things.

Density initialized from wave functions
                                  
                                  
                                  
                                  
             S       S            
                                  
         Mo    S Mo    S          
                                  
           MoS     MoS            
                                  
               S       S          
                                  
                                  
                                  
                                  

Positions:
   0 Mo     0.006874   -0.015357    6.559498    ( 0.0000,  0.0000,  0.0000)
   1 S      1.600031    0.900851    8.087959    ( 0.0000,  0.0000,  0.0000)
   2 S      1.597949    0.899489    5.027031    ( 0.0000,  0.0000,  0.0000)
   3 Mo    -1.584228    2.735871    6.560200    ( 0.0000,  0.0000,  0.0000)
   4 S      0.006175    3.655465    8.089671    ( 0.0000,  0.0000,  0.0000)
   5 S      0.007142    3.649057    5.025143    ( 0.0000,  0.0000,  0.0000)
   6 Mo     3.188643   -0.019515    6.556319    ( 0.0000,  0.0000,  0.0000)
   7 S      4.775233    0.900194    8.090501    ( 0.0000,  0.0000,  0.0000)
   8 S      4.776948    0.900119    5.026987    ( 0.0000,  0.0000,  0.0000)
   9 Mo     1.597258    2.736725    6.558887    ( 0.0000,  0.0000,  0.0000)
  10 S      3.185440    3.655810    8.088479    ( 0.0000,  0.0000,  0.0000)
  11 S      3.187701    3.655951    5.028714    ( 0.0000,  0.0000,  0.0000)

Unit cell:
           periodic     x           y           z      points  spacing
  1. axis:    yes    6.360000    0.000000    0.000000    28     0.1967
  2. axis:    yes   -3.180000    5.507922    0.000000    28     0.1967
  3. axis:    no     0.000000   -0.000000   13.190000    60     0.2198

  Lengths:   6.360000   6.360000  13.190000
  Angles:   90.000000  90.000000 120.000000

Effective grid spacing dv^(1/3) = 0.2142

iter     time        total  log10-change:       
                    energy  eigst   dens  relforce  
   1 21:00:10   -98.324135  -3.55                
   2 21:00:13   -98.323660  -4.67  -3.06         
   3 21:00:15   -98.323162c -4.50  -3.15         
   4 21:00:18   -98.323096c -5.60c -3.40         
   5 21:00:20   -98.323026c -5.26c -3.50         
   6 21:00:23   -98.323034c -5.80c -3.82c        
   7 21:00:26   -98.323017c -6.20c -3.85c -0.69  
   8 21:00:29   -98.323018c -6.79c -4.13c -0.89  
   9 21:00:31   -98.323015c -7.04c -4.23c -1.01c 

Converged after 9 iterations.

Dipole moment: (13.458997, -7.149237, -0.000486) |e|*Ang

Energy contributions relative to reference atoms: (reference = -526675.923698)

Kinetic:         -4.395385
Potential:      -19.793955
External:        +0.000000
XC:             -73.642557
Entropy (-ST):   -0.000299
Local:           -0.490969
--------------------------
Free energy:    -98.323165
Extrapolated:   -98.323015

Showing only first 2 kpts
 Kpt  Band  Eigenvalues  Occupancy
  0    50     -0.37150    2.00000
  0    51     -0.28835    1.99999
  0    52      2.09729    0.00002
  0    53      2.24299    0.00000

  1    50     -0.39478    2.00000
  1    51      0.03691    1.99970
  1    52      2.23461    0.00000
  1    53      2.24423    0.00000


Fermi level: 0.91847

Gap: 1.552 eV
Transition (v -> c):
  (s=0, k=2, n=51, [0.08, -0.08, 0.00]) -> (s=0, k=11, n=52, [0.25, 0.42, 0.00])

Forces in eV/Ang:
  0 Mo    0.00585   -0.02166   -0.02372
  1 S    -0.01024   -0.01166   -0.02913
  2 S    -0.00358    0.01069    0.05257
  3 Mo    0.02845    0.00258   -0.04381
  4 S    -0.00029   -0.00834   -0.04287
  5 S    -0.00624    0.02472    0.08575
  6 Mo   -0.02728   -0.00030    0.00250
  7 S     0.01243   -0.00075   -0.04131
  8 S     0.00937    0.01430    0.06034
  9 Mo   -0.01111   -0.00910   -0.03735
 10 S     0.00893    0.00898   -0.01084
 11 S    -0.00933    0.00284    0.04604

System changes: positions 

Initializing position-dependent things.

Density initialized from wave functions
                                  
                                  
                                  
                                  
             S       S            
                                  
         Mo    S Mo    S          
                                  
           MoS     MoS            
                                  
               S       S          
                                  
                                  
                                  
                                  

Positions:
   0 Mo     0.006925   -0.015613    6.559187    ( 0.0000,  0.0000,  0.0000)
   1 S      1.599604    0.900718    8.087083    ( 0.0000,  0.0000,  0.0000)
   2 S      1.597604    0.899493    5.027969    ( 0.0000,  0.0000,  0.0000)
   3 Mo    -1.583986    2.736195    6.559921    ( 0.0000,  0.0000,  0.0000)
   4 S      0.006240    3.655488    8.088714    ( 0.0000,  0.0000,  0.0000)
   5 S      0.007161    3.649593    5.026477    ( 0.0000,  0.0000,  0.0000)
   6 Mo     3.188441   -0.019176    6.556373    ( 0.0000,  0.0000,  0.0000)
   7 S      4.775449    0.900036    8.089544    ( 0.0000,  0.0000,  0.0000)
   8 S      4.777221    0.900207    5.028140    ( 0.0000,  0.0000,  0.0000)
   9 Mo     1.596953    2.736639    6.558725    ( 0.0000,  0.0000,  0.0000)
  10 S      3.185721    3.655493    8.087862    ( 0.0000,  0.0000,  0.0000)
  11 S      3.187791    3.655769    5.029628    ( 0.0000,  0.0000,  0.0000)

Unit cell:
           periodic     x           y           z      points  spacing
  1. axis:    yes    6.360000    0.000000    0.000000    28     0.1967
  2. axis:    yes   -3.180000    5.507922    0.000000    28     0.1967
  3. axis:    no     0.000000   -0.000000   13.190000    60     0.2198

  Lengths:   6.360000   6.360000  13.190000
  Angles:   90.000000  90.000000 120.000000

Effective grid spacing dv^(1/3) = 0.2142

iter     time        total  log10-change:       
                    energy  eigst   dens  relforce  
   1 21:00:35   -98.323411  -4.93                
   2 21:00:37   -98.323392  -6.09c -3.73c        
   3 21:00:40   -98.323374c -5.96c -3.81c        
   4 21:00:43   -98.323370c -6.96c -4.07c -0.87  
   5 21:00:45   -98.323369c -6.74c -4.18c -0.55  
   6 21:00:48   -98.323369c -7.25c -4.48c -0.95  
   7 21:00:51   -98.323368c -7.45c -4.59c -1.15c 

Converged after 7 iterations.

Dipole moment: (13.449972, -7.152474, -0.000138) |e|*Ang

Energy contributions relative to reference atoms: (reference = -526675.923698)

Kinetic:         -3.856206
Potential:      -20.227630
External:        +0.000000
XC:             -73.741566
Entropy (-ST):   -0.000305
Local:           -0.497813
--------------------------
Free energy:    -98.323521
Extrapolated:   -98.323368

Showing only first 2 kpts
 Kpt  Band  Eigenvalues  Occupancy
  0    50     -0.37435    2.00000
  0    51     -0.28727    1.99999
  0    52      2.09518    0.00002
  0    53      2.24368    0.00000

  1    50     -0.39736    2.00000
  1    51      0.03908    1.99969
  1    52      2.23297    0.00000
  1    53      2.24303    0.00000


Fermi level: 0.91776

Gap: 1.545 eV
Transition (v -> c):
  (s=0, k=2, n=51, [0.08, -0.08, 0.00]) -> (s=0, k=11, n=52, [0.25, 0.42, 0.00])

Forces in eV/Ang:
  0 Mo    0.00434   -0.02342   -0.00696
  1 S    -0.00846   -0.00544   -0.01009
  2 S     0.00113    0.01226    0.02376
  3 Mo    0.01544   -0.00508   -0.02555
  4 S     0.00792   -0.01469   -0.02627
  5 S    -0.00672    0.02904    0.04433
  6 Mo   -0.02204    0.00314    0.00831
  7 S     0.00829    0.00056   -0.03071
  8 S     0.00256    0.00983    0.02282
  9 Mo    0.00404   -0.00823   -0.01937
 10 S     0.00469    0.00430   -0.00160
 11 S    -0.01075   -0.00298    0.01807

System changes: positions 

Initializing position-dependent things.

Density initialized from wave functions
                                  
                                  
                                  
                                  
             S       S            
                                  
         Mo    S Mo    S          
                                  
           MoS     MoS            
                                  
               S       S          
                                  
                                  
                                  
                                  

Positions:
   0 Mo     0.007179   -0.017072    6.558918    ( 0.0000,  0.0000,  0.0000)
   1 S      1.598393    0.900800    8.086894    ( 0.0000,  0.0000,  0.0000)
   2 S      1.596643    0.900352    5.028984    ( 0.0000,  0.0000,  0.0000)
   3 Mo    -1.583665    2.736743    6.559582    ( 0.0000,  0.0000,  0.0000)
   4 S      0.007991    3.654951    8.086223    ( 0.0000,  0.0000,  0.0000)
   5 S      0.006963    3.652055    5.028881    ( 0.0000,  0.0000,  0.0000)
   6 Mo     3.187522   -0.017703    6.556815    ( 0.0000,  0.0000,  0.0000)
   7 S      4.775894    0.899565    8.087056    ( 0.0000,  0.0000,  0.0000)
   8 S      4.777805    0.900433    5.029230    ( 0.0000,  0.0000,  0.0000)
   9 Mo     1.597012    2.736228    6.558598    ( 0.0000,  0.0000,  0.0000)
  10 S      3.185891    3.654340    8.088306    ( 0.0000,  0.0000,  0.0000)
  11 S      3.187485    3.654260    5.030150    ( 0.0000,  0.0000,  0.0000)

Unit cell:
           periodic     x           y           z      points  spacing
  1. axis:    yes    6.360000    0.000000    0.000000    28     0.1967
  2. axis:    yes   -3.180000    5.507922    0.000000    28     0.1967
  3. axis:    no     0.000000   -0.000000   13.190000    60     0.2198

  Lengths:   6.360000   6.360000  13.190000
  Angles:   90.000000  90.000000 120.000000

Effective grid spacing dv^(1/3) = 0.2142

iter     time        total  log10-change:       
                    energy  eigst   dens  relforce  
   1 21:00:55   -98.323741  -4.26                
   2 21:00:57   -98.323721  -5.38c -3.54c        
   3 21:01:00   -98.323669c -5.51c -3.58c        
   4 21:01:03   -98.323662c -6.70c -3.90c -0.71  
   5 21:01:05   -98.323658c -6.59c -3.97c -0.11  
   6 21:01:08   -98.323659c -6.70c -4.15c -0.15  
   7 21:01:11   -98.323656c -6.99c -4.29c -0.60  
   8 21:01:14   -98.323657c -7.55c -4.49c -0.88  
   9 21:01:17   -98.323656c -7.61c -4.58c -0.73  
  10 21:01:19   -98.323656c -8.17c -4.88c -1.41c 

Converged after 10 iterations.

Dipole moment: (13.437516, -7.146245, -0.000164) |e|*Ang

Energy contributions relative to reference atoms: (reference = -526675.923698)

Kinetic:         -3.237136
Potential:      -20.721425
External:        +0.000000
XC:             -73.865312
Entropy (-ST):   -0.000313
Local:           -0.499626
--------------------------
Free energy:    -98.323812
Extrapolated:   -98.323656

Showing only first 2 kpts
 Kpt  Band  Eigenvalues  Occupancy
  0    50     -0.37733    2.00000
  0    51     -0.28559    1.99999
  0    52      2.09321    0.00002
  0    53      2.24501    0.00000

  1    50     -0.40002    2.00000
  1    51      0.04218    1.99968
  1    52      2.23179    0.00000
  1    53      2.24190    0.00000


Fermi level: 0.91739

Gap: 1.537 eV
Transition (v -> c):
  (s=0, k=2, n=51, [0.08, -0.08, 0.00]) -> (s=0, k=11, n=52, [0.25, 0.42, 0.00])

Forces in eV/Ang:
  0 Mo   -0.00112   -0.01119   -0.00334
  1 S    -0.00679   -0.00835    0.00136
  2 S     0.00235   -0.00074    0.00154
  3 Mo    0.01365   -0.01607   -0.01695
  4 S    -0.01330    0.00224    0.01294
  5 S    -0.00318    0.01538    0.00715
  6 Mo   -0.00906   -0.00861    0.00361
  7 S     0.00898    0.00926    0.00492
  8 S    -0.00243    0.00774    0.00648
  9 Mo    0.00667   -0.00068   -0.01500
 10 S     0.00742    0.00615   -0.00433
 11 S    -0.00458    0.00545    0.00002

System changes: positions 

Initializing position-dependent things.

Density initialized from wave functions
                                  
                                  
                                  
                                  
             S       S            
                                  
         Mo    S Mo    S          
                                  
           MoS     MoS            
                                  
               S       S          
                                  
                                  
                                  
                                  

Positions:
   0 Mo     0.007107   -0.017483    6.558956    ( 0.0000,  0.0000,  0.0000)
   1 S      1.598187    0.900616    8.086684    ( 0.0000,  0.0000,  0.0000)
   2 S      1.596510    0.900312    5.029046    ( 0.0000,  0.0000,  0.0000)
   3 Mo    -1.583075    2.736421    6.559257    ( 0.0000,  0.0000,  0.0000)
   4 S      0.007705    3.655347    8.086421    ( 0.0000,  0.0000,  0.0000)
   5 S      0.006934    3.652420    5.029045    ( 0.0000,  0.0000,  0.0000)
   6 Mo     3.187216   -0.017796    6.556947    ( 0.0000,  0.0000,  0.0000)
   7 S      4.776095    0.899743    8.087180    ( 0.0000,  0.0000,  0.0000)
   8 S      4.777853    0.900635    5.029401    ( 0.0000,  0.0000,  0.0000)
   9 Mo     1.596985    2.736185    6.558252    ( 0.0000,  0.0000,  0.0000)
  10 S      3.186071    3.654321    8.088113    ( 0.0000,  0.0000,  0.0000)
  11 S      3.187508    3.654223    5.030289    ( 0.0000,  0.0000,  0.0000)

Unit cell:
           periodic     x           y           z      points  spacing
  1. axis:    yes    6.360000    0.000000    0.000000    28     0.1967
  2. axis:    yes   -3.180000    5.507922    0.000000    28     0.1967
  3. axis:    no     0.000000   -0.000000   13.190000    60     0.2198

  Lengths:   6.360000   6.360000  13.190000
  Angles:   90.000000  90.000000 120.000000

Effective grid spacing dv^(1/3) = 0.2142

iter     time        total  log10-change:       
                    energy  eigst   dens  relforce  
   1 21:01:23   -98.323705  -5.32c               
   2 21:01:25   -98.323700  -6.48c -4.01c        
   3 21:01:28   -98.323695c -6.47c -4.09c        
   4 21:01:31   -98.323694c -7.47c -4.32c -0.52  
   5 21:01:33   -98.323693c -6.94c -4.44c -0.02  
   6 21:01:36   -98.323693c -7.90c -4.75c -0.98  
   7 21:01:39   -98.323693c -8.21c -4.82c -0.72  
   8 21:01:42   -98.323693c -8.63c -5.00c -0.86  
   9 21:01:45   -98.323693c -8.89c -5.18c -1.00  
  10 21:01:48   -98.323693c -9.29c -5.32c -1.15c 

Converged after 10 iterations.

Dipole moment: (13.425893, -7.125643, -0.000097) |e|*Ang

Energy contributions relative to reference atoms: (reference = -526675.923698)

Kinetic:         -3.225783
Potential:      -20.727179
External:        +0.000000
XC:             -73.871382
Entropy (-ST):   -0.000313
Local:           -0.499192
--------------------------
Free energy:    -98.323850
Extrapolated:   -98.323693

Showing only first 2 kpts
 Kpt  Band  Eigenvalues  Occupancy
  0    50     -0.37734    2.00000
  0    51     -0.28580    1.99999
  0    52      2.09333    0.00002
  0    53      2.24542    0.00000

  1    50     -0.39995    2.00000
  1    51      0.04234    1.99968
  1    52      2.23187    0.00000
  1    53      2.24179    0.00000


Fermi level: 0.91745

Gap: 1.537 eV
Transition (v -> c):
  (s=0, k=2, n=51, [0.08, -0.08, 0.00]) -> (s=0, k=11, n=52, [0.25, 0.42, 0.00])

Forces in eV/Ang:
  0 Mo    0.00013   -0.00316   -0.00388
  1 S    -0.00605   -0.00560    0.00203
  2 S     0.00185   -0.00106    0.00197
  3 Mo   -0.00050   -0.00511   -0.00618
  4 S    -0.00582   -0.00661    0.00710
  5 S    -0.00223    0.01322    0.00260
  6 Mo   -0.00107   -0.00089    0.00362
  7 S     0.00555    0.00364   -0.00005
  8 S    -0.00273    0.00098    0.00283
  9 Mo    0.00533    0.00047   -0.00190
 10 S     0.00795    0.00120   -0.00566
 11 S    -0.00232    0.00257   -0.00158

System changes: positions 

Initializing position-dependent things.

Density initialized from wave functions
                                  
                                  
                                  
                                  
             S       S            
                                  
         Mo    S Mo    S          
                                  
           MoS     MoS            
                                  
               S       S          
                                  
                                  
                                  
                                  

Positions:
   0 Mo     0.007141   -0.017638    6.558823    ( 0.0000,  0.0000,  0.0000)
   1 S      1.598037    0.900421    8.086617    ( 0.0000,  0.0000,  0.0000)
   2 S      1.596623    0.900322    5.029245    ( 0.0000,  0.0000,  0.0000)
   3 Mo    -1.582986    2.736240    6.558934    ( 0.0000,  0.0000,  0.0000)
   4 S      0.007502    3.655072    8.086471    ( 0.0000,  0.0000,  0.0000)
   5 S      0.006833    3.652828    5.029375    ( 0.0000,  0.0000,  0.0000)
   6 Mo     3.187069   -0.017897    6.557118    ( 0.0000,  0.0000,  0.0000)
   7 S      4.776282    0.899865    8.087018    ( 0.0000,  0.0000,  0.0000)
   8 S      4.777775    0.900725    5.029637    ( 0.0000,  0.0000,  0.0000)
   9 Mo     1.597131    2.736156    6.558085    ( 0.0000,  0.0000,  0.0000)
  10 S      3.186304    3.654466    8.087887    ( 0.0000,  0.0000,  0.0000)
  11 S      3.187382    3.654378    5.030366    ( 0.0000,  0.0000,  0.0000)

Unit cell:
           periodic     x           y           z      points  spacing
  1. axis:    yes    6.360000    0.000000    0.000000    28     0.1967
  2. axis:    yes   -3.180000    5.507922    0.000000    28     0.1967
  3. axis:    no     0.000000   -0.000000   13.190000    60     0.2198

  Lengths:   6.360000   6.360000  13.190000
  Angles:   90.000000  90.000000 120.000000

Effective grid spacing dv^(1/3) = 0.2142

iter     time        total  log10-change:       
                    energy  eigst   dens  relforce  
   1 21:01:52   -98.323716  -5.68c               
   2 21:01:54   -98.323713  -6.81c -4.13c        
   3 21:01:57   -98.323709c -6.61c -4.24c        
   4 21:02:00   -98.323709c -7.79c -4.52c -0.53  
   5 21:02:03   -98.323708c -7.49c -4.58c -0.04  
   6 21:02:06   -98.323708c -7.98c -4.97c -0.95  
   7 21:02:08   -98.323708c -8.70c -4.98c -0.88  
   8 21:02:12   -98.323708c -9.05c -5.19c -0.89  
   9 21:02:14   -98.323708c -9.00c -5.30c -1.00c 

Converged after 9 iterations.

Dipole moment: (13.425572, -7.115326, 0.000030) |e|*Ang

Energy contributions relative to reference atoms: (reference = -526675.923698)

Kinetic:         -3.143619
Potential:      -20.792894
External:        +0.000000
XC:             -73.887225
Entropy (-ST):   -0.000314
Local:           -0.499812
--------------------------
Free energy:    -98.323866
Extrapolated:   -98.323708

Showing only first 2 kpts
 Kpt  Band  Eigenvalues  Occupancy
  0    50     -0.37772    2.00000
  0    51     -0.28582    1.99999
  0    52      2.09311    0.00002
  0    53      2.24571    0.00000

  1    50     -0.40026    2.00000
  1    51      0.04266    1.99968
  1    52      2.23165    0.00000
  1    53      2.24159    0.00000


Fermi level: 0.91738

Gap: 1.536 eV
Transition (v -> c):
  (s=0, k=2, n=51, [0.08, -0.08, 0.00]) -> (s=0, k=16, n=52, [0.42, 0.25, 0.00])

Forces in eV/Ang:
  0 Mo   -0.00058    0.00145   -0.00118
  1 S    -0.00523   -0.00251    0.00304
  2 S     0.00150   -0.00184   -0.00318
  3 Mo   -0.00310    0.00058    0.00151
  4 S    -0.00288   -0.00646    0.00548
  5 S     0.00044    0.00907   -0.00469
  6 Mo    0.00289    0.00191    0.00656
  7 S     0.00375    0.00145    0.00118
  8 S    -0.00358   -0.00336   -0.00312
  9 Mo    0.00091    0.00139    0.00564
 10 S     0.00666   -0.00287   -0.00472
 11 S    -0.00042   -0.00005   -0.00766

System changes: positions 

Initializing position-dependent things.

Density initialized from wave functions
                                  
                                  
                                  
                                  
             S       S            
                                  
         Mo    S Mo    S          
                                  
           MoS     MoS            
                                  
               S       S          
                                  
                                  
                                  
                                  

Positions:
   0 Mo     0.007143   -0.017652    6.558727    ( 0.0000,  0.0000,  0.0000)
   1 S      1.597897    0.900284    8.086677    ( 0.0000,  0.0000,  0.0000)
   2 S      1.596727    0.900284    5.029260    ( 0.0000,  0.0000,  0.0000)
   3 Mo    -1.583015    2.736148    6.558798    ( 0.0000,  0.0000,  0.0000)
   4 S      0.007327    3.654827    8.086652    ( 0.0000,  0.0000,  0.0000)
   5 S      0.006795    3.653137    5.029409    ( 0.0000,  0.0000,  0.0000)
   6 Mo     3.187071   -0.017945    6.557291    ( 0.0000,  0.0000,  0.0000)
   7 S      4.776430    0.899961    8.087020    ( 0.0000,  0.0000,  0.0000)
   8 S      4.777661    0.900705    5.029672    ( 0.0000,  0.0000,  0.0000)
   9 Mo     1.597226    2.736176    6.558091    ( 0.0000,  0.0000,  0.0000)
  10 S      3.186523    3.654512    8.087717    ( 0.0000,  0.0000,  0.0000)
  11 S      3.187310    3.654482    5.030245    ( 0.0000,  0.0000,  0.0000)

Unit cell:
           periodic     x           y           z      points  spacing
  1. axis:    yes    6.360000    0.000000    0.000000    28     0.1967
  2. axis:    yes   -3.180000    5.507922    0.000000    28     0.1967
  3. axis:    no     0.000000   -0.000000   13.190000    60     0.2198

  Lengths:   6.360000   6.360000  13.190000
  Angles:   90.000000  90.000000 120.000000

Effective grid spacing dv^(1/3) = 0.2142

iter     time        total  log10-change:       
                    energy  eigst   dens  relforce  
   1 21:02:18   -98.323720  -6.17c               
   2 21:02:20   -98.323719  -7.28c -4.55c        
   3 21:02:23   -98.323719c -7.23c -4.59c        
   4 21:02:26   -98.323719c -8.54c -4.95c -0.83  
   5 21:02:29   -98.323719c -8.69c -5.01c -0.74  
   6 21:02:32   -98.323719c -8.45c -5.15c -0.54  
   7 21:02:35   -98.323719c -9.03c -5.26c -0.90  
   8 21:02:38   -98.323719c -10.20c -5.58c -1.63c 

Converged after 8 iterations.

Dipole moment: (13.429952, -7.113594, 0.000034) |e|*Ang

Energy contributions relative to reference atoms: (reference = -526675.923698)

Kinetic:         -3.155517
Potential:      -20.782956
External:        +0.000000
XC:             -73.885573
Entropy (-ST):   -0.000314
Local:           -0.499516
--------------------------
Free energy:    -98.323876
Extrapolated:   -98.323719

Showing only first 2 kpts
 Kpt  Band  Eigenvalues  Occupancy
  0    50     -0.37767    2.00000
  0    51     -0.28589    1.99999
  0    52      2.09315    0.00002
  0    53      2.24575    0.00000

  1    50     -0.40022    2.00000
  1    51      0.04262    1.99968
  1    52      2.23167    0.00000
  1    53      2.24158    0.00000


Fermi level: 0.91739

Gap: 1.536 eV
Transition (v -> c):
  (s=0, k=2, n=51, [0.08, -0.08, 0.00]) -> (s=0, k=16, n=52, [0.42, 0.25, 0.00])

Forces in eV/Ang:
  0 Mo   -0.00031    0.00236   -0.00086
  1 S    -0.00395   -0.00038    0.00221
  2 S     0.00171   -0.00061   -0.00208
  3 Mo   -0.00140    0.00348    0.00159
  4 S    -0.00054   -0.00547    0.00253
  5 S     0.00171    0.00563   -0.00341
  6 Mo    0.00229    0.00237    0.00710
  7 S     0.00280    0.00010    0.00132
  8 S    -0.00337   -0.00395   -0.00403
  9 Mo   -0.00264    0.00078    0.00579
 10 S     0.00426   -0.00331   -0.00311
 11 S    -0.00031   -0.00149   -0.00734

System changes: positions 

Initializing position-dependent things.

Density initialized from wave functions
                                  
                                  
                                  
                                  
             S       S            
                                  
         Mo    S Mo    S          
                                  
           MoS     MoS            
                                  
               S       S          
                                  
                                  
                                  
                                  

Positions:
   0 Mo     0.007154   -0.017696    6.558537    ( 0.0000,  0.0000,  0.0000)
   1 S      1.597529    0.900070    8.086868    ( 0.0000,  0.0000,  0.0000)
   2 S      1.596895    0.900270    5.029264    ( 0.0000,  0.0000,  0.0000)
   3 Mo    -1.583037    2.736101    6.558574    ( 0.0000,  0.0000,  0.0000)
   4 S      0.007126    3.654307    8.086913    ( 0.0000,  0.0000,  0.0000)
   5 S      0.006771    3.653860    5.029489    ( 0.0000,  0.0000,  0.0000)
   6 Mo     3.187064   -0.017914    6.557756    ( 0.0000,  0.0000,  0.0000)
   7 S      4.776758    0.900103    8.086994    ( 0.0000,  0.0000,  0.0000)
   8 S      4.777421    0.900602    5.029649    ( 0.0000,  0.0000,  0.0000)
   9 Mo     1.597300    2.736203    6.558196    ( 0.0000,  0.0000,  0.0000)
  10 S      3.186955    3.654468    8.087454    ( 0.0000,  0.0000,  0.0000)
  11 S      3.187159    3.654527    5.029864    ( 0.0000,  0.0000,  0.0000)

Unit cell:
           periodic     x           y           z      points  spacing
  1. axis:    yes    6.360000    0.000000    0.000000    28     0.1967
  2. axis:    yes   -3.180000    5.507922    0.000000    28     0.1967
  3. axis:    no     0.000000   -0.000000   13.190000    60     0.2198

  Lengths:   6.360000   6.360000  13.190000
  Angles:   90.000000  90.000000 120.000000

Effective grid spacing dv^(1/3) = 0.2142

iter     time        total  log10-change:       
                    energy  eigst   dens  relforce  
   1 21:02:42   -98.323736  -5.59c               
   2 21:02:44   -98.323735  -6.72c -4.25c        
   3 21:02:47   -98.323733c -6.86c -4.31c        
   4 21:02:51   -98.323732c -8.03c -4.61c -0.78  
   5 21:02:54   -98.323732c -7.97c -4.72c -0.33  
   6 21:02:57   -98.323732c -8.20c -4.89c -0.37  
   7 21:02:59   -98.323732c -8.49c -5.02c -0.66  
   8 21:03:02   -98.323732c -8.96c -5.28c -0.90  
   9 21:03:05   -98.323732c -9.28c -5.31c -0.98  
  10 21:03:08   -98.323732c -9.49c -5.58c -0.97  
  11 21:03:11   -98.323732c -10.23c -5.82c -1.36c 

Converged after 11 iterations.

Dipole moment: (13.435469, -7.114489, 0.000005) |e|*Ang

Energy contributions relative to reference atoms: (reference = -526675.923698)

Kinetic:         -3.186593
Potential:      -20.758195
External:        +0.000000
XC:             -73.879467
Entropy (-ST):   -0.000314
Local:           -0.499320
--------------------------
Free energy:    -98.323889
Extrapolated:   -98.323732

Showing only first 2 kpts
 Kpt  Band  Eigenvalues  Occupancy
  0    50     -0.37753    2.00000
  0    51     -0.28597    1.99999
  0    52      2.09325    0.00002
  0    53      2.24570    0.00000

  1    50     -0.40009    2.00000
  1    51      0.04247    1.99968
  1    52      2.23175    0.00000
  1    53      2.24160    0.00000


Fermi level: 0.91740

Gap: 1.536 eV
Transition (v -> c):
  (s=0, k=2, n=51, [0.08, -0.08, 0.00]) -> (s=0, k=16, n=52, [0.42, 0.25, 0.00])

Forces in eV/Ang:
  0 Mo   -0.00020    0.00218   -0.00171
  1 S    -0.00134    0.00186    0.00135
  2 S     0.00126   -0.00017    0.00041
  3 Mo    0.00016    0.00502   -0.00026
  4 S     0.00098   -0.00115    0.00052
  5 S     0.00281   -0.00037   -0.00183
  6 Mo    0.00121    0.00217    0.00480
  7 S     0.00084   -0.00083    0.00207
  8 S    -0.00211   -0.00372   -0.00317
  9 Mo   -0.00480    0.00015    0.00281
 10 S     0.00070   -0.00282   -0.00137
 11 S     0.00063   -0.00237   -0.00370

System changes: positions 

Initializing position-dependent things.

Density initialized from wave functions
                                  
                                  
                                  
                                  
             S       S            
                                  
         Mo    S Mo    S          
                                  
           MoS     MoS            
                                  
               S       S          
                                  
                                  
                                  
                                  

Positions:
   0 Mo     0.007137   -0.017715    6.558436    ( 0.0000,  0.0000,  0.0000)
   1 S      1.597321    0.900025    8.086976    ( 0.0000,  0.0000,  0.0000)
   2 S      1.596915    0.900249    5.029252    ( 0.0000,  0.0000,  0.0000)
   3 Mo    -1.583017    2.736164    6.558500    ( 0.0000,  0.0000,  0.0000)
   4 S      0.007084    3.654185    8.087054    ( 0.0000,  0.0000,  0.0000)
   5 S      0.006826    3.654173    5.029450    ( 0.0000,  0.0000,  0.0000)
   6 Mo     3.187085   -0.017815    6.557984    ( 0.0000,  0.0000,  0.0000)
   7 S      4.776906    0.900140    8.087055    ( 0.0000,  0.0000,  0.0000)
   8 S      4.777319    0.900500    5.029579    ( 0.0000,  0.0000,  0.0000)
   9 Mo     1.597239    2.736223    6.558279    ( 0.0000,  0.0000,  0.0000)
  10 S      3.187139    3.654330    8.087344    ( 0.0000,  0.0000,  0.0000)
  11 S      3.187144    3.654437    5.029658    ( 0.0000,  0.0000,  0.0000)

Unit cell:
           periodic     x           y           z      points  spacing
  1. axis:    yes    6.360000    0.000000    0.000000    28     0.1967
  2. axis:    yes   -3.180000    5.507922    0.000000    28     0.1967
  3. axis:    no     0.000000   -0.000000   13.190000    60     0.2198

  Lengths:   6.360000   6.360000  13.190000
  Angles:   90.000000  90.000000 120.000000

Effective grid spacing dv^(1/3) = 0.2142

iter     time        total  log10-change:       
                    energy  eigst   dens  relforce  
   1 21:03:15   -98.323737  -6.21c               
   2 21:03:17   -98.323737  -7.33c -4.53c        
   3 21:03:20   -98.323736c -7.41c -4.60c        
   4 21:03:23   -98.323736c -8.57c -4.86c -0.61  
   5 21:03:27   -98.323736c -8.39c -4.95c -0.15  
   6 21:03:29   -98.323736c -8.66c -5.20c -0.60  
   7 21:03:32   -98.323736c -9.00c -5.28c -0.71  
   8 21:03:35   -98.323736c -9.56c -5.54c -1.03c 

Converged after 8 iterations.

Dipole moment: (13.437114, -7.118515, -0.000000) |e|*Ang

[...]
                                  
                                  
                                  

Positions:
   0 Mo     0.007124   -0.017733    6.558365    ( 0.0000,  0.0000,  0.0000)
   1 S      1.597191    0.900040    8.087033    ( 0.0000,  0.0000,  0.0000)
   2 S      1.596954    0.900265    5.029299    ( 0.0000,  0.0000,  0.0000)
   3 Mo    -1.582970    2.736231    6.558417    ( 0.0000,  0.0000,  0.0000)
   4 S      0.007088    3.654127    8.087092    ( 0.0000,  0.0000,  0.0000)
   5 S      0.006898    3.654328    5.029470    ( 0.0000,  0.0000,  0.0000)
   6 Mo     3.187079   -0.017744    6.558141    ( 0.0000,  0.0000,  0.0000)
   7 S      4.777006    0.900158    8.087079    ( 0.0000,  0.0000,  0.0000)
   8 S      4.777236    0.900424    5.029538    ( 0.0000,  0.0000,  0.0000)
   9 Mo     1.597158    2.736224    6.558303    ( 0.0000,  0.0000,  0.0000)
  10 S      3.187210    3.654244    8.087272    ( 0.0000,  0.0000,  0.0000)
  11 S      3.187120    3.654343    5.029550    ( 0.0000,  0.0000,  0.0000)

Unit cell:
           periodic     x           y           z      points  spacing
  1. axis:    yes    6.360000    0.000000    0.000000    28     0.1967
  2. axis:    yes   -3.180000    5.507922    0.000000    28     0.1967
  3. axis:    no     0.000000   -0.000000   13.190000    60     0.2198

  Lengths:   6.360000   6.360000  13.190000
  Angles:   90.000000  90.000000 120.000000

Effective grid spacing dv^(1/3) = 0.2142

iter     time        total  log10-change:       
                    energy  eigst   dens  relforce  
   1 21:03:38   -98.323739  -6.51c               
   2 21:03:41   -98.323738  -7.65c -4.66c        
   3 21:03:43   -98.323738c -7.60c -4.73c        
   4 21:03:47   -98.323738c -8.76c -5.01c -0.75  
   5 21:03:50   -98.323738c -8.47c -5.09c -0.17  
   6 21:03:53   -98.323738c -8.76c -5.38c -0.43  
   7 21:03:56   -98.323738c -9.32c -5.39c -0.71  
   8 21:03:59   -98.323738c -10.39c -5.76c -1.22c 

Converged after 8 iterations.

Dipole moment: (13.435495, -7.120757, -0.000020) |e|*Ang

Energy contributions relative to reference atoms: (reference = -526675.923698)

Kinetic:         -3.228494
Potential:      -20.724809
External:        +0.000000
XC:             -73.871222
Entropy (-ST):   -0.000313
Local:           -0.499056
--------------------------
Free energy:    -98.323895
Extrapolated:   -98.323738

Showing only first 2 kpts
 Kpt  Band  Eigenvalues  Occupancy
  0    50     -0.37733    2.00000
  0    51     -0.28595    1.99999
  0    52      2.09337    0.00002
  0    53      2.24554    0.00000

  1    50     -0.39993    2.00000
  1    51      0.04230    1.99968
  1    52      2.23188    0.00000
  1    53      2.24172    0.00000


Fermi level: 0.91745

Gap: 1.537 eV
Transition (v -> c):
  (s=0, k=2, n=51, [0.08, -0.08, 0.00]) -> (s=0, k=16, n=52, [0.42, 0.25, 0.00])

Forces in eV/Ang:
  0 Mo   -0.00040    0.00007   -0.00091
  1 S    -0.00039    0.00231    0.00037
  2 S     0.00154    0.00048    0.00216
  3 Mo    0.00094    0.00046   -0.00153
  4 S     0.00055    0.00109   -0.00026
  5 S     0.00215   -0.00176    0.00045
  6 Mo   -0.00003    0.00015    0.00086
  7 S     0.00058    0.00058    0.00045
  8 S    -0.00145   -0.00125   -0.00034
  9 Mo   -0.00130   -0.00012   -0.00072
 10 S    -0.00183   -0.00023   -0.00110
 11 S    -0.00057   -0.00134    0.00021

System changes: positions 

Initializing position-dependent things.

Density initialized from wave functions
                                  
                                  
                                  
                                  
             S       S            
                                  
         Mo    S Mo    S          
                                  
           MoS     MoS            
                                  
               S       S          
                                  
                                  
                                  
                                  

Positions:
   0 Mo     0.007104   -0.017728    6.558311    ( 0.0000,  0.0000,  0.0000)
   1 S      1.597119    0.900102    8.087066    ( 0.0000,  0.0000,  0.0000)
   2 S      1.597009    0.900271    5.029363    ( 0.0000,  0.0000,  0.0000)
   3 Mo    -1.582930    2.736280    6.558353    ( 0.0000,  0.0000,  0.0000)
   4 S      0.007091    3.654133    8.087126    ( 0.0000,  0.0000,  0.0000)
   5 S      0.006989    3.654352    5.029462    ( 0.0000,  0.0000,  0.0000)
   6 Mo     3.187089   -0.017706    6.558243    ( 0.0000,  0.0000,  0.0000)
   7 S      4.777066    0.900182    8.087120    ( 0.0000,  0.0000,  0.0000)
   8 S      4.777158    0.900347    5.029498    ( 0.0000,  0.0000,  0.0000)
   9 Mo     1.597081    2.736227    6.558312    ( 0.0000,  0.0000,  0.0000)
  10 S      3.187208    3.654190    8.087196    ( 0.0000,  0.0000,  0.0000)
  11 S      3.187105    3.654268    5.029496    ( 0.0000,  0.0000,  0.0000)

Unit cell:
           periodic     x           y           z      points  spacing
  1. axis:    yes    6.360000    0.000000    0.000000    28     0.1967
  2. axis:    yes   -3.180000    5.507922    0.000000    28     0.1967
  3. axis:    no     0.000000   -0.000000   13.190000    60     0.2198

  Lengths:   6.360000   6.360000  13.190000
  Angles:   90.000000  90.000000 120.000000

Effective grid spacing dv^(1/3) = 0.2142

iter     time        total  log10-change:       
                    energy  eigst   dens  relforce  
   1 21:04:02   -98.323739  -6.78c               
   2 21:04:04   -98.323739  -7.91c -4.77c        
   3 21:04:07   -98.323739c -7.88c -4.83c        
   4 21:04:10   -98.323739c -9.09c -5.16c -0.96  
   5 21:04:13   -98.323739c -8.90c -5.23c -0.19  
   6 21:04:16   -98.323739c -9.15c -5.46c -0.22  
   7 21:04:19   -98.323739c -9.68c -5.57c -0.69  
   8 21:04:22   -98.323739c -10.12c -5.82c -0.81  
   9 21:04:25   -98.323739c -10.27c -5.87c -0.88  
  10 21:04:28   -98.323739c -10.69c -6.10c -1.09c 

Converged after 10 iterations.

Dipole moment: (13.433568, -7.122329, -0.000033) |e|*Ang

Energy contributions relative to reference atoms: (reference = -526675.923698)

Kinetic:         -3.232130
Potential:      -20.722024
External:        +0.000000
XC:             -73.870377
Entropy (-ST):   -0.000313
Local:           -0.499051
--------------------------
Free energy:    -98.323896
Extrapolated:   -98.323739

Showing only first 2 kpts
 Kpt  Band  Eigenvalues  Occupancy
  0    50     -0.37731    2.00000
  0    51     -0.28593    1.99999
  0    52      2.09337    0.00002
  0    53      2.24550    0.00000

  1    50     -0.39992    2.00000
  1    51      0.04229    1.99968
  1    52      2.23189    0.00000
  1    53      2.24174    0.00000


Fermi level: 0.91745

Gap: 1.537 eV
Transition (v -> c):
  (s=0, k=2, n=51, [0.08, -0.08, 0.00]) -> (s=0, k=11, n=52, [0.25, 0.42, 0.00])

Forces in eV/Ang:
  0 Mo   -0.00023   -0.00044   -0.00029
  1 S    -0.00006    0.00168    0.00026
  2 S     0.00065    0.00033    0.00155
  3 Mo    0.00067   -0.00108   -0.00096
  4 S     0.00034    0.00132   -0.00034
  5 S     0.00104   -0.00141    0.00060
  6 Mo   -0.00019   -0.00047    0.00030
  7 S     0.00015    0.00074   -0.00024
  8 S    -0.00049   -0.00023    0.00012
  9 Mo    0.00031   -0.00008   -0.00065
 10 S    -0.00180    0.00033   -0.00078
 11 S    -0.00050   -0.00051    0.00044

System changes: positions 

Initializing position-dependent things.

Density initialized from wave functions
                                  
                                  
                                  
                                  
             S       S            
                                  
         Mo    S Mo    S          
                                  
           MoS     MoS            
                                  
               S       S          
                                  
                                  
                                  
                                  

Positions:
   0 Mo     0.007092   -0.017719    6.558301    ( 0.0000,  0.0000,  0.0000)
   1 S      1.597126    0.900183    8.087067    ( 0.0000,  0.0000,  0.0000)
   2 S      1.597044    0.900281    5.029420    ( 0.0000,  0.0000,  0.0000)
   3 Mo    -1.582899    2.736291    6.558328    ( 0.0000,  0.0000,  0.0000)
   4 S      0.007112    3.654194    8.087111    ( 0.0000,  0.0000,  0.0000)
   5 S      0.007054    3.654257    5.029458    ( 0.0000,  0.0000,  0.0000)
   6 Mo     3.187093   -0.017709    6.558267    ( 0.0000,  0.0000,  0.0000)
   7 S      4.777065    0.900195    8.087139    ( 0.0000,  0.0000,  0.0000)
   8 S      4.777127    0.900312    5.029476    ( 0.0000,  0.0000,  0.0000)
   9 Mo     1.597040    2.736224    6.558302    ( 0.0000,  0.0000,  0.0000)
  10 S      3.187133    3.654186    8.087164    ( 0.0000,  0.0000,  0.0000)
  11 S      3.187099    3.654231    5.029504    ( 0.0000,  0.0000,  0.0000)

Unit cell:
           periodic     x           y           z      points  spacing
  1. axis:    yes    6.360000    0.000000    0.000000    28     0.1967
  2. axis:    yes   -3.180000    5.507922    0.000000    28     0.1967
  3. axis:    no     0.000000   -0.000000   13.190000    60     0.2198

  Lengths:   6.360000   6.360000  13.190000
  Angles:   90.000000  90.000000 120.000000

Effective grid spacing dv^(1/3) = 0.2142

iter     time        total  log10-change:       
                    energy  eigst   dens  relforce  
   1 21:04:31   -98.323740  -7.23c               
   2 21:04:34   -98.323739  -8.39c -4.95c        
   3 21:04:36   -98.323739c -8.47c -5.02c        
   4 21:04:40   -98.323739c -9.32c -5.27c -0.52  
   5 21:04:43   -98.323739c -9.21c -5.41c -0.12  
   6 21:04:45   -98.323739c -9.41c -5.61c -0.17  
   7 21:04:48   -98.323739c -10.28c -5.86c -0.99  
   8 21:04:51   -98.323739c -10.77c -6.01c -1.01c 

Converged after 8 iterations.

Dipole moment: (13.431326, -7.122113, -0.000034) |e|*Ang

Energy contributions relative to reference atoms: (reference = -526675.923698)

Kinetic:         -3.227505
Potential:      -20.725742
External:        +0.000000
XC:             -73.871235
Entropy (-ST):   -0.000313
Local:           -0.499101
--------------------------
Free energy:    -98.323896
Extrapolated:   -98.323739

Showing only first 2 kpts
 Kpt  Band  Eigenvalues  Occupancy
  0    50     -0.37733    2.00000
  0    51     -0.28591    1.99999
  0    52      2.09336    0.00002
  0    53      2.24550    0.00000

  1    50     -0.39993    2.00000
  1    51      0.04231    1.99968
  1    52      2.23188    0.00000
  1    53      2.24174    0.00000


Fermi level: 0.91745

Gap: 1.537 eV
Transition (v -> c):
  (s=0, k=2, n=51, [0.08, -0.08, 0.00]) -> (s=0, k=11, n=52, [0.25, 0.42, 0.00])

Forces in eV/Ang:
  0 Mo   -0.00008   -0.00055    0.00012
  1 S    -0.00043    0.00071    0.00041
  2 S     0.00032   -0.00019    0.00071
  3 Mo   -0.00024   -0.00161   -0.00007
  4 S    -0.00023    0.00065    0.00012
  5 S     0.00023   -0.00010    0.00026
  6 Mo   -0.00002   -0.00041   -0.00040
  7 S     0.00031    0.00096   -0.00063
  8 S    -0.00026   -0.00002    0.00044
  9 Mo    0.00149    0.00014   -0.00025
 10 S    -0.00074    0.00043   -0.00074
 11 S    -0.00032   -0.00006    0.00023

System changes: positions 

Initializing position-dependent things.

Density initialized from wave functions
                                  
                                  
                                  
                                  
             S       S            
                                  
         Mo    S Mo    S          
                                  
           MoS     MoS            
                                  
               S       S          
                                  
                                  
                                  
                                  

Positions:
   0 Mo     0.007089   -0.017718    6.558293    ( 0.0000,  0.0000,  0.0000)
   1 S      1.597123    0.900213    8.087073    ( 0.0000,  0.0000,  0.0000)
   2 S      1.597074    0.900280    5.029455    ( 0.0000,  0.0000,  0.0000)
   3 Mo    -1.582899    2.736268    6.558310    ( 0.0000,  0.0000,  0.0000)
   4 S      0.007103    3.654202    8.087112    ( 0.0000,  0.0000,  0.0000)
   5 S      0.007075    3.654230    5.029468    ( 0.0000,  0.0000,  0.0000)
   6 Mo     3.187094   -0.017725    6.558276    ( 0.0000,  0.0000,  0.0000)
   7 S      4.777074    0.900217    8.087131    ( 0.0000,  0.0000,  0.0000)
   8 S      4.777106    0.900299    5.029481    ( 0.0000,  0.0000,  0.0000)
   9 Mo     1.597054    2.736226    6.558295    ( 0.0000,  0.0000,  0.0000)
  10 S      3.187106    3.654204    8.087133    ( 0.0000,  0.0000,  0.0000)
  11 S      3.187087    3.654233    5.029509    ( 0.0000,  0.0000,  0.0000)

Unit cell:
           periodic     x           y           z      points  spacing
  1. axis:    yes    6.360000    0.000000    0.000000    28     0.1967
  2. axis:    yes   -3.180000    5.507922    0.000000    28     0.1967
  3. axis:    no     0.000000   -0.000000   13.190000    60     0.2198

  Lengths:   6.360000   6.360000  13.190000
  Angles:   90.000000  90.000000 120.000000

Effective grid spacing dv^(1/3) = 0.2142

iter     time        total  log10-change:       
                    energy  eigst   dens  relforce  
   1 21:04:54   -98.323740  -7.82c               
   2 21:04:56   -98.323740  -8.98c -5.21c        
   3 21:04:59   -98.323740c -8.80c -5.30c        
   4 21:05:03   -98.323739c -9.92c -5.59c -0.75  
   5 21:05:06   -98.323739c -9.66c -5.66c -0.20  
   6 21:05:09   -98.323739c -10.13c -5.97c -0.61  
   7 21:05:12   -98.323739c -10.67c -6.06c -0.89  
   8 21:05:15   -98.323739c -11.05c -6.26c -0.93  
   9 21:05:17   -98.323739c -11.43c -6.40c -1.23c 

Converged after 9 iterations.

Dipole moment: (13.431195, -7.121255, -0.000024) |e|*Ang

Energy contributions relative to reference atoms: (reference = -526675.923698)

Kinetic:         -3.221945
Potential:      -20.730182
External:        +0.000000
XC:             -73.872320
Entropy (-ST):   -0.000314
Local:           -0.499136
--------------------------
Free energy:    -98.323896
Extrapolated:   -98.323739

Showing only first 2 kpts
 Kpt  Band  Eigenvalues  Occupancy
  0    50     -0.37736    2.00000
  0    51     -0.28591    1.99999
  0    52      2.09334    0.00002
  0    53      2.24552    0.00000

  1    50     -0.39996    2.00000
  1    51      0.04233    1.99968
  1    52      2.23186    0.00000
  1    53      2.24172    0.00000


Fermi level: 0.91744

Gap: 1.537 eV
Transition (v -> c):
  (s=0, k=2, n=51, [0.08, -0.08, 0.00]) -> (s=0, k=11, n=52, [0.25, 0.42, 0.00])

Forces in eV/Ang:
  0 Mo   -0.00005   -0.00026    0.00023
  1 S    -0.00035    0.00041    0.00031
  2 S     0.00009   -0.00020    0.00016
  3 Mo   -0.00029   -0.00090    0.00018
  4 S    -0.00011    0.00032    0.00001
  5 S     0.00007    0.00003    0.00000
  6 Mo    0.00008   -0.00014   -0.00010
  7 S     0.00018    0.00056   -0.00048
  8 S    -0.00010   -0.00013    0.00010
  9 Mo    0.00093    0.00012    0.00009
 10 S    -0.00033    0.00020   -0.00039
 11 S    -0.00009   -0.00008   -0.00015

Timing:                                      incl.     excl.
-------------------------------------------------------------------
Density initialized from wave functions:     6.822     6.821   1.1% |
 Symmetrize density:                         0.001     0.001   0.0% |
Forces:                                     15.677    15.677   2.5% ||
Hamiltonian:                                 3.342     0.040   0.0% |
 Atomic:                                     1.623     1.389   0.2% |
  XC Correction:                             0.234     0.234   0.0% |
 Calculate atomic Hamiltonians:              0.890     0.890   0.1% |
 Communicate:                                0.257     0.257   0.0% |
 Initialize Hamiltonian:                     0.000     0.000   0.0% |
 Poisson:                                    0.017     0.017   0.0% |
 XC 3D grid:                                 0.514     0.514   0.1% |
LCAO initialization:                         1.869     0.107   0.0% |
 LCAO eigensolver:                           0.256     0.000   0.0% |
  Calculate projections:                     0.000     0.000   0.0% |
  DenseAtomicCorrection:                     0.001     0.001   0.0% |
  Distribute overlap matrix:                 0.001     0.001   0.0% |
  Orbital Layouts:                           0.005     0.005   0.0% |
  Potential matrix:                          0.247     0.247   0.0% |
  Sum over cells:                            0.001     0.001   0.0% |
 LCAO to grid:                               1.314     1.314   0.2% |
 Set positions (LCAO WFS):                   0.192     0.034   0.0% |
  Basic WFS set positions:                   0.000     0.000   0.0% |
  Basis functions set positions:             0.000     0.000   0.0% |
  P tci:                                     0.102     0.102   0.0% |
  ST tci:                                    0.044     0.044   0.0% |
  mktci:                                     0.012     0.012   0.0% |
PWDescriptor:                                0.178     0.178   0.0% |
Redistribute:                                0.030     0.030   0.0% |
SCF-cycle:                                 598.703   106.763  16.8% |------|
 Davidson:                                 328.178    67.771  10.7% |---|
  Apply H:                                  47.568    46.636   7.3% |--|
   HMM T:                                    0.932     0.932   0.1% |
  Subspace diag:                            62.180     0.142   0.0% |
   calc_h_matrix:                           52.197     4.331   0.7% |
    Apply H:                                47.865    47.004   7.4% |--|
     HMM T:                                  0.861     0.861   0.1% |
   diagonalize:                              2.536     2.536   0.4% |
   rotate_psi:                               7.306     7.306   1.1% |
  calc. matrices:                          124.263    33.895   5.3% |-|
   Apply H:                                 90.368    88.569  13.9% |-----|
    HMM T:                                   1.799     1.799   0.3% |
  diagonalize:                               9.618     9.618   1.5% ||
  rotate_psi:                               16.779    16.779   2.6% ||
 Density:                                   61.239     0.004   0.0% |
  Atomic density matrices:                   8.147     8.147   1.3% ||
  Mix:                                      13.400    13.400   2.1% ||
  Multipole moments:                         0.037     0.037   0.0% |
  Pseudo density:                           39.650    39.645   6.2% |-|
   Symmetrize density:                       0.005     0.005   0.0% |
 Forces:                                    71.246    71.246  11.2% |---|
 Hamiltonian:                               29.016     0.481   0.1% |
  Atomic:                                   14.005    11.938   1.9% ||
   XC Correction:                            2.067     2.067   0.3% |
  Calculate atomic Hamiltonians:             7.668     7.668   1.2% |
  Communicate:                               1.764     1.764   0.3% |
  Poisson:                                   0.239     0.239   0.0% |
  XC 3D grid:                                4.859     4.859   0.8% |
 Orthonormalize:                             2.261     0.011   0.0% |
  calc_s_matrix:                             0.240     0.240   0.0% |
  inverse-cholesky:                          0.112     0.112   0.0% |
  projections:                               1.507     1.507   0.2% |
  rotate_psi_s:                              0.390     0.390   0.1% |
Set symmetry:                                0.001     0.001   0.0% |
Other:                                       8.770     8.770   1.4% ||
-------------------------------------------------------------------
Total:                                               635.391 100.0%

Memory usage: 211.35 MiB
Date: Wed Aug 11 21:05:18 2021
