
  ___ ___ ___ _ _ _  
 |   |   |_  | | | | 
 | | | | | . | | | | 
 |__ |  _|___|_____|  21.6.1b1
 |___|_|             

User:   chronum@localhost.localdomain
Date:   Wed Aug 11 21:13:43 2021
Arch:   x86_64
Pid:    671304
Python: 3.8.10
gpaw:   /home/chronum/GPAW/gpawhacksrc/gpaw (e48871cb1a)
_gpaw:  /home/chronum/GPAW/gpawhacksrc/
        _gpaw.cpython-38-x86_64-linux-gnu.so (5d5b0fc3a6)
ase:    /home/chronum/miniconda3/envs/gpawhack/lib/python3.8/site-packages/ase (version 3.22.0)
numpy:  /home/chronum/miniconda3/envs/gpawhack/lib/python3.8/site-packages/numpy (version 1.21.1)
scipy:  /home/chronum/miniconda3/envs/gpawhack/lib/python3.8/site-packages/scipy (version 1.7.0)
libxc:  4.3.4
units:  Angstrom and eV
cores: 8
OpenMP: False
OMP_NUM_THREADS: 1

Input parameters:
  convergence: {forces: 0.0001}
  kpts: [6 6 1]
  mode: pw

System changes: positions, numbers, cell, pbc, initial_charges, initial_magmoms 

Initialize ...

Mo-setup:
  name: Molybdenum
  id: ac24daaf086600a00ce6d19a74574df1
  Z: 42.0
  valence: 14
  core: 28
  charge: 0.0
  file: /home/chronum/GPAW/setups/gpaw-setups-0.9.20000/Mo.LDA.gz
  compensation charges: gauss, rc=0.38, lmax=2
  cutoffs: 2.16(filt), 1.42(core),
  valence states:
                energy  radius
    4s(2.00)   -64.384   1.238
    5s(1.00)    -4.319   1.238
    4p(6.00)   -38.595   1.296
    5p(0.00)    -1.161   1.296
    4d(5.00)    -3.933   1.296
    *d          23.278   1.296

  Using partial waves for Mo as LCAO basis

S-setup:
  name: Sulfur
  id: a5eb49d7597a2879c13719b04c71318f
  Z: 16.0
  valence: 6
  core: 10
  charge: 0.0
  file: /home/chronum/GPAW/setups/gpaw-setups-0.9.20000/S.LDA.gz
  compensation charges: gauss, rc=0.24, lmax=2
  cutoffs: 1.77(filt), 1.66(core),
  valence states:
                energy  radius
    3s(2.00)   -17.278   0.974
    3p(4.00)    -7.106   0.979
    *s           9.933   0.974
    *p          20.105   0.979
    *d           0.000   0.900

  Using partial waves for S as LCAO basis

Reference energy: -526675.923698

Spin-paired calculation

Convergence criteria:
 Maximum [total energy] change in last 3 cyles: 0.0005 eV / electron
 Maximum integral of absolute [dens]ity change: 0.0001 electrons / valence electron
 Maximum integral of absolute [eigenst]ate change: 4e-08 eV^2 / valence electron
 Maximum change in the atomic [forces] across last 2 cycles: 0.0001 eV/Ang
 Maximum number of scf [iter]ations: 333
 (Square brackets indicate name in SCF output, whereas a 'c' in
 the SCF output indicates the quantity has converged.)

Symmetries present (total): 1

  ( 1  0  0)
  ( 0  1  0)
  ( 0  0  1)

36 k-points: 6 x 6 x 1 Monkhorst-Pack grid
18 k-points in the irreducible part of the Brillouin zone
       k-points in crystal coordinates                weights
   0:     0.08333333   -0.41666667    0.00000000          2/36
   1:     0.08333333   -0.25000000    0.00000000          2/36
   2:     0.08333333   -0.08333333    0.00000000          2/36
   3:     0.08333333    0.08333333    0.00000000          2/36
   4:     0.08333333    0.25000000    0.00000000          2/36
   5:     0.08333333    0.41666667    0.00000000          2/36
   6:     0.25000000   -0.41666667    0.00000000          2/36
   7:     0.25000000   -0.25000000    0.00000000          2/36
   8:     0.25000000   -0.08333333    0.00000000          2/36
   9:     0.25000000    0.08333333    0.00000000          2/36
          ...
  17:     0.41666667    0.41666667    0.00000000          2/36

Wave functions: Plane wave expansion
  Cutoff energy: 340.000 eV
  Number of coefficients (min, max): 6558, 6607
  Pulay-stress correction: 0.000000 eV/Ang^3 (de/decut=0.000000)
  Using FFTW library
  ScaLapack parameters: grid=1x1, blocksize=None
  Wavefunction extrapolation:
    Improved wavefunction reuse through dual PAW basis 

Occupation numbers: Fermi-Dirac: width=0.1000 eV
 

Eigensolver
   Davidson(niter=2) 

Densities:
  Coarse grid: 28*28*60 grid
  Fine grid: 56*56*120 grid
  Total Charge: 0.000000 

Density mixing:
  Method: separate
  Backend: pulay
  Linear mixing parameter: 0.05
  Mixing with 5 old densities
  Damping of long wave oscillations: 50 

Hamiltonian:
  XC and Coulomb potentials evaluated on a 56*56*120 grid
  Using the LDA Exchange-Correlation functional
  External potential:
    NoExternalPotential
 

Memory estimate:
  Process memory now: 113.84 MiB
  Calculator: 53.37 MiB
    Density: 10.82 MiB
      Arrays: 4.67 MiB
      Localized functions: 4.36 MiB
      Mixer: 1.79 MiB
    Hamiltonian: 3.16 MiB
      Arrays: 3.05 MiB
      XC: 0.00 MiB
      Poisson: 0.00 MiB
      vbar: 0.11 MiB
    Wavefunctions: 39.39 MiB
      Arrays psit_nG: 27.02 MiB
      Eigensolver: 7.95 MiB
      Projections: 0.36 MiB
      Projectors: 2.02 MiB
      PW-descriptor: 2.05 MiB

Total number of cores used: 8
Parallelization over k-points: 4
Domain decomposition: 1 x 1 x 2

Number of atoms: 12
Number of atomic orbitals: 84
Number of bands in calculation: 67
Number of valence electrons: 104
Bands to converge: occupied

... initialized

Initializing position-dependent things.

Density initialized from atomic densities
Creating initial wave functions:
  67 bands from LCAO basis set

                                  
                                  
                                  
                                  
             S       S            
                                  
         Mo     SMo    S          
                                  
           MoS    Mo S            
                S                 
                       S          
                                  
                                  
                                  
                                  

Positions:
   0 Mo     0.049671   -0.013826    6.659769    ( 0.0000,  0.0000,  0.0000)
   1 S      1.742303    0.894572    8.166586    ( 0.0000,  0.0000,  0.0000)
   2 S      1.747921    0.994730    4.953053    ( 0.0000,  0.0000,  0.0000)
   3 Mo    -1.535744    2.707619    6.548427    ( 0.0000,  0.0000,  0.0000)
   4 S      0.024196    3.480620    8.017508    ( 0.0000,  0.0000,  0.0000)
   5 S     -0.056229    3.570665    5.031425    ( 0.0000,  0.0000,  0.0000)
   6 Mo     3.089198   -0.141230    6.741565    ( 0.0000,  0.0000,  0.0000)
   7 S      4.747422    0.924740    8.047525    ( 0.0000,  0.0000,  0.0000)
   8 S      4.715562    0.929079    4.884901    ( 0.0000,  0.0000,  0.0000)
   9 Mo     1.627570    2.693897    6.565831    ( 0.0000,  0.0000,  0.0000)
  10 S      3.119829    3.857176    8.188650    ( 0.0000,  0.0000,  0.0000)
  11 S      3.074229    3.754202    4.877916    ( 0.0000,  0.0000,  0.0000)

Unit cell:
           periodic     x           y           z      points  spacing
  1. axis:    yes    6.360000    0.000000    0.000000    28     0.1967
  2. axis:    yes   -3.180000    5.507922    0.000000    28     0.1967
  3. axis:    no     0.000000   -0.000000   13.190000    60     0.2198

  Lengths:   6.360000   6.360000  13.190000
  Angles:   90.000000  90.000000 120.000000

Effective grid spacing dv^(1/3) = 0.2142

iter     time        total  log10-change:       
                    energy  eigst   dens  force  
   1 21:13:50  -102.078313                       
   2 21:13:53  -100.434826  -0.62  -1.13         
   3 21:13:55   -97.465379  -0.96  -1.18         
   4 21:13:58   -96.546739  -1.41  -1.30         
   5 21:14:00   -96.015325  -1.44  -1.41         
   6 21:14:02   -96.468111  -1.39  -1.66         
   7 21:14:04   -96.346197  -1.36  -1.71         
   8 21:14:07   -95.924652  -2.44  -1.66         
   9 21:14:09   -95.884441  -2.24  -2.09         
  10 21:14:11   -95.877835c -3.21  -2.55         
  11 21:14:14   -95.875704c -3.88  -2.59         
  12 21:14:16   -95.875013c -4.29  -2.80         
  13 21:14:18   -95.874275c -4.54  -2.91         
  14 21:14:20   -95.874224c -5.36  -3.03         
  15 21:14:22   -95.874000c -5.04  -3.09         
  16 21:14:25   -95.873856c -5.10  -3.21         
  17 21:14:27   -95.873800c -5.37  -3.34         
  18 21:14:30   -95.873778c -6.07  -3.48         
  19 21:14:32   -95.873748c -5.55  -3.57         
  20 21:14:34   -95.873746c -6.61  -3.94         
  21 21:14:36   -95.873744c -6.25  -3.99         
  22 21:14:39   -95.873740c -6.79  -4.16c        
  23 21:14:42   -95.873739c -7.79c -4.53c        
  24 21:14:44   -95.873739c -8.36c -4.58c -2.60  
  25 21:14:47   -95.873739c -7.80c -4.67c -2.36  
  26 21:14:50   -95.873739c -8.26c -4.91c -2.52  
  27 21:14:53   -95.873739c -8.81c -5.18c -3.05  
  28 21:14:55   -95.873739c -9.37c -5.25c -3.03  
  29 21:14:58   -95.873739c -9.18c -5.40c -3.13  
  30 21:15:01   -95.873739c -10.13c -5.72c -3.78  
  31 21:15:04   -95.873739c -10.50c -5.80c -3.56  
  32 21:15:06   -95.873739c -10.39c -5.93c -3.60  
  33 21:15:09   -95.873739c -10.88c -6.09c -4.11c 

Converged after 33 iterations.

Dipole moment: (7.340237, -2.061021, -0.035678) |e|*Ang

Energy contributions relative to reference atoms: (reference = -526675.923698)

Kinetic:        -12.016882
Potential:      -12.700658
External:        +0.000000
XC:             -70.646940
Entropy (-ST):   -0.003025
Local:           -0.507747
--------------------------
Free energy:    -95.875251
Extrapolated:   -95.873739

Showing only first 2 kpts
 Kpt  Band  Eigenvalues  Occupancy
  0    50     -0.27457    1.99998
  0    51      0.05472    1.99945
  0    52      1.79796    0.00020
  0    53      1.84908    0.00012

  1    50     -0.13089    1.99991
  1    51      0.25401    1.99597
  1    52      1.91240    0.00006
  1    53      2.01825    0.00002


Fermi level: 0.87452

Gap: 1.099 eV
Transition (v -> c):
  (s=0, k=2, n=51, [0.08, -0.08, 0.00]) -> (s=0, k=16, n=52, [0.42, 0.25, 0.00])

Forces in eV/Ang:
  0 Mo   -0.28760    1.53141   -3.60143
  1 S    -2.01068    0.53191    0.92773
  2 S    -0.96326   -1.35282    1.77905
  3 Mo   -3.56768    0.23466   -1.32713
  4 S    -0.04506    0.15077    2.47614
  5 S     0.92235    0.59443    0.35378
  6 Mo    2.88959    1.20182   -5.32903
  7 S     0.17580   -0.44135    1.02876
  8 S     0.32557   -0.67910    2.66786
  9 Mo    0.80219    0.94531   -1.20423
 10 S     0.70410   -2.36115   -0.33449
 11 S     1.05466   -0.35580    2.56276

System changes: positions 

Initializing position-dependent things.

Density initialized from wave functions
                                  
                                  
                                  
                                  
             S       S            
                                  
         Mo     SMo    S          
                                  
           MoS     MoS            
                S                 
                       S          
                                  
                                  
                                  
                                  

Positions:
   0 Mo     0.045563    0.008051    6.608320    ( 0.0000,  0.0000,  0.0000)
   1 S      1.713579    0.902170    8.179840    ( 0.0000,  0.0000,  0.0000)
   2 S      1.734160    0.975404    4.978468    ( 0.0000,  0.0000,  0.0000)
   3 Mo    -1.586711    2.710971    6.529468    ( 0.0000,  0.0000,  0.0000)
   4 S      0.023552    3.482774    8.052882    ( 0.0000,  0.0000,  0.0000)
   5 S     -0.043052    3.579156    5.036479    ( 0.0000,  0.0000,  0.0000)
   6 Mo     3.130477   -0.124061    6.665436    ( 0.0000,  0.0000,  0.0000)
   7 S      4.749934    0.918435    8.062222    ( 0.0000,  0.0000,  0.0000)
   8 S      4.720213    0.919378    4.923013    ( 0.0000,  0.0000,  0.0000)
   9 Mo     1.639030    2.707401    6.548627    ( 0.0000,  0.0000,  0.0000)
  10 S      3.129888    3.823445    8.183872    ( 0.0000,  0.0000,  0.0000)
  11 S      3.089295    3.749119    4.914527    ( 0.0000,  0.0000,  0.0000)

Unit cell:
           periodic     x           y           z      points  spacing
  1. axis:    yes    6.360000    0.000000    0.000000    28     0.1967
  2. axis:    yes   -3.180000    5.507922    0.000000    28     0.1967
  3. axis:    no     0.000000   -0.000000   13.190000    60     0.2198

  Lengths:   6.360000   6.360000  13.190000
  Angles:   90.000000  90.000000 120.000000

Effective grid spacing dv^(1/3) = 0.2142

iter     time        total  log10-change:       
                    energy  eigst   dens  force  
   1 21:15:13   -98.140414  -0.99                
   2 21:15:15   -97.592092  -2.16  -1.60         
   3 21:15:18   -97.202867  -1.71  -1.75         
   4 21:15:20   -97.170139  -2.81  -2.08         
   5 21:15:22   -97.148105  -2.39  -2.20         
   6 21:15:24   -97.145216c -3.36  -2.49         
   7 21:15:27   -97.141221c -3.95  -2.58         
   8 21:15:29   -97.140611c -4.25  -2.71         
   9 21:15:31   -97.139676c -4.25  -2.87         
  10 21:15:34   -97.139588c -4.99  -3.04         
  11 21:15:36   -97.139528c -4.84  -3.11         
  12 21:15:38   -97.139474c -5.74  -3.32         
  13 21:15:40   -97.139429c -5.45  -3.43         
  14 21:15:43   -97.139437c -6.27  -3.70         
  15 21:15:45   -97.139438c -6.11  -3.76         
  16 21:15:47   -97.139437c -6.78  -3.94         
  17 21:15:50   -97.139435c -6.15  -4.01c        
  18 21:15:52   -97.139434c -7.10  -4.33c        
  19 21:15:55   -97.139434c -7.48c -4.41c        
  20 21:15:58   -97.139434c -7.67c -4.55c -2.36  
  21 21:16:01   -97.139433c -7.48c -4.61c -2.17  
  22 21:16:04   -97.139433c -8.30c -5.00c -2.94  
  23 21:16:06   -97.139433c -8.69c -5.08c -2.93  
  24 21:16:10   -97.139433c -8.65c -5.16c -2.86  
  25 21:16:12   -97.139433c -9.52c -5.21c -3.06  
  26 21:16:15   -97.139433c -9.23c -5.29c -3.04  
  27 21:16:18   -97.139433c -9.71c -5.38c -3.12  
  28 21:16:22   -97.139433c -9.63c -5.51c -3.32  
  29 21:16:25   -97.139433c -10.29c -5.64c -3.71  
  30 21:16:28   -97.139433c -9.96c -5.72c -3.52  
  31 21:16:31   -97.139433c -10.75c -6.05c -3.92  
  32 21:16:33   -97.139433c -11.10c -6.15c -4.04c 

Converged after 32 iterations.

Dipole moment: (9.787135, -3.610154, -0.021340) |e|*Ang

Energy contributions relative to reference atoms: (reference = -526675.923698)

Kinetic:        -20.344304
Potential:       -6.529925
External:        +0.000000
XC:             -69.843451
Entropy (-ST):   -0.000630
Local:           -0.421439
--------------------------
Free energy:    -97.139748
Extrapolated:   -97.139433

Showing only first 2 kpts
 Kpt  Band  Eigenvalues  Occupancy
  0    50     -0.34767    1.99999
  0    51     -0.10756    1.99991
  0    52      1.97099    0.00004
  0    53      2.01558    0.00003

  1    50     -0.21091    1.99997
  1    51      0.05384    1.99954
  1    52      2.06185    0.00002
  1    53      2.21445    0.00000


Fermi level: 0.89215

Gap: 1.494 eV
Transition (v -> c):
  (s=0, k=2, n=51, [0.08, -0.08, 0.00]) -> (s=0, k=16, n=52, [0.42, 0.25, 0.00])

Forces in eV/Ang:
  0 Mo   -0.31982    0.89496   -1.96557
  1 S    -1.09552    0.07068   -0.41005
  2 S    -0.88172   -1.18826    1.21274
  3 Mo   -2.02397    0.41348   -0.22882
  4 S    -0.26973    0.49326    0.89288
  5 S     0.62101    0.38841    0.16862
  6 Mo    1.73981    1.10278   -2.73094
  7 S     0.13655   -0.31833    0.29079
  8 S     0.27215   -0.64973    2.01877
  9 Mo    0.20549    0.66305   -0.01240
 10 S     0.64545   -1.56556   -1.06152
 11 S     0.97031   -0.30471    1.82598

System changes: positions 

Initializing position-dependent things.

Density initialized from wave functions
                                   
                                   
                                   
                                   
              S       S            
                                   
                SMo     S          
         Mo                        
            MoS    Mo S            
                                   
                S       S          
                                   
                                   
                                   
                                   

Positions:
   0 Mo     0.034048    0.042529    6.531858    ( 0.0000,  0.0000,  0.0000)
   1 S      1.670952    0.906169    8.169103    ( 0.0000,  0.0000,  0.0000)
   2 S      1.701886    0.931741    5.024268    ( 0.0000,  0.0000,  0.0000)
   3 Mo    -1.665008    2.725432    6.517747    ( 0.0000,  0.0000,  0.0000)
   4 S      0.014455    3.499623    8.090225    ( 0.0000,  0.0000,  0.0000)
   5 S     -0.019564    3.593902    5.043177    ( 0.0000,  0.0000,  0.0000)
   6 Mo     3.197231   -0.083705    6.558190    ( 0.0000,  0.0000,  0.0000)
   7 S      4.755015    0.906492    8.075074    ( 0.0000,  0.0000,  0.0000)
   8 S      4.730262    0.895691    4.998342    ( 0.0000,  0.0000,  0.0000)
   9 Mo     1.648346    2.732357    6.544476    ( 0.0000,  0.0000,  0.0000)
  10 S      3.153510    3.764119    8.147580    ( 0.0000,  0.0000,  0.0000)
  11 S      3.124795    3.737895    4.983127    ( 0.0000,  0.0000,  0.0000)

Unit cell:
           periodic     x           y           z      points  spacing
  1. axis:    yes    6.360000    0.000000    0.000000    28     0.1967
  2. axis:    yes   -3.180000    5.507922    0.000000    28     0.1967
  3. axis:    no     0.000000   -0.000000   13.190000    60     0.2198

  Lengths:   6.360000   6.360000  13.190000
  Angles:   90.000000  90.000000 120.000000

Effective grid spacing dv^(1/3) = 0.2142

iter     time        total  log10-change:       
                    energy  eigst   dens  force  
   1 21:16:37   -99.424529  -0.70                
   2 21:16:39   -98.717379  -1.84  -1.52         
   3 21:16:41   -98.089814  -1.44  -1.63         
   4 21:16:44   -98.026613  -2.56  -1.95         
   5 21:16:46   -97.971967  -2.28  -2.04         
   6 21:16:48   -97.987214  -2.55  -2.33         
   7 21:16:50   -97.962576c -3.22  -2.35         
   8 21:16:52   -97.963849c -4.24  -2.72         
   9 21:16:55   -97.961885c -4.06  -2.74         
  10 21:16:57   -97.961800c -4.25  -3.05         
  11 21:16:59   -97.961689c -5.44  -3.23         
  12 21:17:01   -97.961601c -5.20  -3.29         
  13 21:17:04   -97.961594c -5.69  -3.43         
  14 21:17:06   -97.961585c -5.52  -3.52         
  15 21:17:09   -97.961590c -5.97  -3.68         
  16 21:17:11   -97.961587c -6.23  -3.75         
  17 21:17:13   -97.961591c -6.95  -4.02c        
  18 21:17:15   -97.961587c -6.04  -4.05c        
  19 21:17:17   -97.961586c -7.44c -4.29c        
  20 21:17:19   -97.961586c -7.65c -4.39c -2.27  
  21 21:17:22   -97.961587c -6.54  -4.42c -1.59  
  22 21:17:24   -97.961586c -7.74c -4.34c -2.11  
  23 21:17:27   -97.961585c -6.99  -4.52c -1.89  
  24 21:17:30   -97.961585c -7.91c -4.85c -2.13  
  25 21:17:33   -97.961585c -8.03c -4.91c -2.33  
  26 21:17:36   -97.961585c -8.37c -5.31c -2.79  
  27 21:17:40   -97.961585c -8.72c -5.34c -2.64  
  28 21:17:42   -97.961585c -9.25c -5.50c -2.89  
  29 21:17:45   -97.961585c -9.42c -5.81c -3.31  
  30 21:17:48   -97.961585c -9.46c -5.79c -3.01  
  31 21:17:51   -97.961585c -10.15c -5.94c -3.33  
  32 21:17:54   -97.961585c -11.44c -6.18c -4.06c 

Converged after 32 iterations.

Dipole moment: (13.947494, -6.753079, 0.012858) |e|*Ang

Energy contributions relative to reference atoms: (reference = -526675.923698)

Kinetic:        -15.014353
Potential:      -11.100683
External:        +0.000000
XC:             -71.417067
Entropy (-ST):   -0.000302
Local:           -0.429331
--------------------------
Free energy:    -97.961736
Extrapolated:   -97.961585

Showing only first 2 kpts
 Kpt  Band  Eigenvalues  Occupancy
  0    50     -0.31070    1.99999
  0    51     -0.29038    1.99999
  0    52      2.08551    0.00001
  0    53      2.13879    0.00001

  1    50     -0.31405    1.99999
  1    51     -0.00322    1.99976
  1    52      2.18674    0.00001
  1    53      2.22910    0.00000


Fermi level: 0.90093

Gap: 1.615 eV
Transition (v -> c):
  (s=0, k=2, n=51, [0.08, -0.08, 0.00]) -> (s=0, k=16, n=52, [0.42, 0.25, 0.00])

Forces in eV/Ang:
  0 Mo   -0.15683   -0.08978    0.65938
  1 S    -0.23417   -0.13347   -1.32506
  2 S    -0.54171   -0.38074    0.01051
  3 Mo    0.50831    0.33259    0.92672
  4 S    -0.36164    0.80503   -0.54753
  5 S     0.15278    0.02486   -0.21058
  6 Mo    0.01675    0.29770    0.75216
  7 S     0.08534   -0.07355   -0.38093
  8 S     0.25411   -0.11763    0.19792
  9 Mo   -0.54911    0.02410    0.87050
 10 S     0.33190   -0.49291   -1.21190
 11 S     0.49428   -0.19639    0.25925

System changes: positions 

Initializing position-dependent things.

Density initialized from wave functions
                                   
                                   
                                   
                                   
              S       S            
                                   
         Mo     SMo     S          
                                   
            MoS    Mo S            
                                   
                S       S          
                                   
                                   
                                   
                                   

Positions:
   0 Mo     0.031221    0.044083    6.534708    ( 0.0000,  0.0000,  0.0000)
   1 S      1.663832    0.905193    8.151519    ( 0.0000,  0.0000,  0.0000)
   2 S      1.692208    0.923652    5.027761    ( 0.0000,  0.0000,  0.0000)
   3 Mo    -1.664291    2.730722    6.528763    ( 0.0000,  0.0000,  0.0000)
   4 S      0.009103    3.511610    8.086832    ( 0.0000,  0.0000,  0.0000)
   5 S     -0.015623    3.595375    5.040785    ( 0.0000,  0.0000,  0.0000)
   6 Mo     3.202864   -0.077099    6.559202    ( 0.0000,  0.0000,  0.0000)
   7 S      4.756582    0.904597    8.071432    ( 0.0000,  0.0000,  0.0000)
   8 S      4.734556    0.892686    5.006245    ( 0.0000,  0.0000,  0.0000)
   9 Mo     1.641857    2.734484    6.554930    ( 0.0000,  0.0000,  0.0000)
  10 S      3.159658    3.752563    8.129294    ( 0.0000,  0.0000,  0.0000)
  11 S      3.133963    3.734377    4.991701    ( 0.0000,  0.0000,  0.0000)

Unit cell:
           periodic     x           y           z      points  spacing
  1. axis:    yes    6.360000    0.000000    0.000000    28     0.1967
  2. axis:    yes   -3.180000    5.507922    0.000000    28     0.1967
  3. axis:    no     0.000000   -0.000000   13.190000    60     0.2198

  Lengths:   6.360000   6.360000  13.190000
  Angles:   90.000000  90.000000 120.000000

Effective grid spacing dv^(1/3) = 0.2142

iter     time        total  log10-change:       
                    energy  eigst   dens  force  
   1 21:17:57   -98.089508  -2.44                
   2 21:18:00   -98.077149  -3.59  -2.41         
   3 21:18:02   -98.067341c -3.23  -2.54         
   4 21:18:04   -98.066583c -4.35  -2.83         
   5 21:18:06   -98.065476c -4.06  -2.91         
   6 21:18:09   -98.065643c -4.64  -3.27         
   7 21:18:11   -98.065345c -5.23  -3.27         
   8 21:18:13   -98.065364c -5.78  -3.56         
   9 21:18:15   -98.065324c -5.78  -3.65         
  10 21:18:17   -98.065321c -6.38  -3.88         
  11 21:18:18   -98.065319c -6.69  -3.99         
  12 21:18:21   -98.065318c -7.24  -4.26c        
  13 21:18:23   -98.065318c -7.30  -4.33c        
  14 21:18:27   -98.065318c -7.54c -4.49c        
  15 21:18:30   -98.065318c -7.97c -4.57c -2.41  
  16 21:18:33   -98.065318c -8.62c -4.65c -3.14  
  17 21:18:37   -98.065318c -7.70c -4.68c -2.09  
  18 21:18:40   -98.065318c -8.63c -5.01c -3.01  
  19 21:18:43   -98.065318c -8.75c -5.16c -2.79  
  20 21:18:46   -98.065318c -8.92c -5.53c -2.96  
  21 21:18:49   -98.065318c -9.78c -5.55c -3.19  
  22 21:18:52   -98.065318c -9.99c -5.73c -3.41  
  23 21:18:55   -98.065318c -10.28c -5.85c -3.55  
  24 21:18:58   -98.065318c -9.81c -5.98c -3.19  
  25 21:19:01   -98.065318c -10.80c -6.04c -3.48  
  26 21:19:04   -98.065318c -10.64c -6.24c -3.56  
  27 21:19:07   -98.065318c -11.38c -6.31c -3.88  
  28 21:19:10   -98.065318c -11.51c -6.47c -4.12c 

Converged after 28 iterations.

Dipole moment: (14.142928, -7.128903, 0.008979) |e|*Ang

Energy contributions relative to reference atoms: (reference = -526675.923698)

Kinetic:        -11.725646
Potential:      -13.775532
External:        +0.000000
XC:             -72.115857
Entropy (-ST):   -0.000301
Local:           -0.448132
--------------------------
Free energy:    -98.065468
Extrapolated:   -98.065318

Showing only first 2 kpts
 Kpt  Band  Eigenvalues  Occupancy
  0    50     -0.32920    1.99999
  0    51     -0.28912    1.99999
  0    52      2.08631    0.00001
  0    53      2.15790    0.00001

  1    50     -0.34080    1.99999
  1    51      0.00790    1.99974
  1    52      2.19519    0.00000
  1    53      2.23110    0.00000


Fermi level: 0.90305

Gap: 1.593 eV
Transition (v -> c):
  (s=0, k=2, n=51, [0.08, -0.08, 0.00]) -> (s=0, k=16, n=52, [0.42, 0.25, 0.00])

Forces in eV/Ang:
  0 Mo   -0.11712   -0.20821    0.53564
  1 S    -0.18644   -0.12258   -1.03062
  2 S    -0.44386   -0.23313    0.02269
  3 Mo    0.64396    0.19617    0.57582
  4 S    -0.31471    0.78810   -0.36326
  5 S     0.10501    0.04207   -0.09798
  6 Mo   -0.15416    0.16744    0.59644
  7 S     0.08925   -0.02633   -0.18095
  8 S     0.22697    0.00348    0.12278
  9 Mo   -0.46373   -0.03627    0.44614
 10 S     0.25183   -0.37029   -0.85959
 11 S     0.36298   -0.20038    0.23289

System changes: positions 

Initializing position-dependent things.

Density initialized from wave functions
                                   
                                   
                                   
                                   
              S       S            
                                   
         Mo     SMo     S          
                                   
            MoS    Mo S            
                                   
                S       S          
                                   
                                   
                                   
                                   

Positions:
   0 Mo     0.023037    0.039606    6.550245    ( 0.0000,  0.0000,  0.0000)
   1 S      1.643561    0.900654    8.094994    ( 0.0000,  0.0000,  0.0000)
   2 S      1.661809    0.903527    5.036826    ( 0.0000,  0.0000,  0.0000)
   3 Mo    -1.643824    2.743727    6.557839    ( 0.0000,  0.0000,  0.0000)
   4 S     -0.009421    3.557768    8.076323    ( 0.0000,  0.0000,  0.0000)
   5 S     -0.005160    3.600346    5.036027    ( 0.0000,  0.0000,  0.0000)
   6 Mo     3.207913   -0.061583    6.570430    ( 0.0000,  0.0000,  0.0000)
   7 S      4.762501    0.900853    8.064644    ( 0.0000,  0.0000,  0.0000)
   8 S      4.749295    0.889355    5.025361    ( 0.0000,  0.0000,  0.0000)
   9 Mo     1.618269    2.736885    6.577319    ( 0.0000,  0.0000,  0.0000)
  10 S      3.177709    3.719851    8.076578    ( 0.0000,  0.0000,  0.0000)
  11 S      3.160241    3.721256    5.016585    ( 0.0000,  0.0000,  0.0000)

Unit cell:
           periodic     x           y           z      points  spacing
  1. axis:    yes    6.360000    0.000000    0.000000    28     0.1967
  2. axis:    yes   -3.180000    5.507922    0.000000    28     0.1967
  3. axis:    no     0.000000   -0.000000   13.190000    60     0.2198

  Lengths:   6.360000   6.360000  13.190000
  Angles:   90.000000  90.000000 120.000000

Effective grid spacing dv^(1/3) = 0.2142

iter     time        total  log10-change:       
                    energy  eigst   dens  force  
   1 21:19:13   -98.409225  -1.52                
   2 21:19:15   -98.310546  -2.67  -1.96         
   3 21:19:16   -98.232170  -2.30  -2.09         
   4 21:19:18   -98.226329  -3.51  -2.41         
   5 21:19:21   -98.218516c -3.34  -2.49         
   6 21:19:23   -98.220183c -3.62  -2.84         
   7 21:19:25   -98.217845c -4.35  -2.84         
   8 21:19:27   -98.218051c -5.04  -3.08         
   9 21:19:29   -98.217656c -4.74  -3.18         
  10 21:19:32   -98.217635c -5.52  -3.46         
  11 21:19:35   -98.217622c -6.01  -3.55         
  12 21:19:37   -98.217616c -5.91  -3.67         
  13 21:19:39   -98.217616c -5.99  -3.84         
  14 21:19:42   -98.217609c -6.21  -3.92         
  15 21:19:44   -98.217608c -6.88  -4.14c        
  16 21:19:46   -98.217609c -6.41  -4.22c        
  17 21:19:48   -98.217608c -7.13  -4.35c        
  18 21:19:50   -98.217607c -8.19c -4.58c        
  19 21:19:53   -98.217608c -7.40  -4.60c -2.09  
  20 21:19:55   -98.217607c -7.93c -4.71c -2.28  
  21 21:19:58   -98.217607c -8.68c -4.85c -3.01  
  22 21:20:00   -98.217607c -8.64c -4.91c -2.67  
  23 21:20:03   -98.217607c -8.26c -5.03c -2.52  
  24 21:20:06   -98.217607c -8.57c -5.08c -2.53  
  25 21:20:09   -98.217607c -8.98c -5.26c -3.12  
  26 21:20:12   -98.217607c -8.91c -5.32c -2.78  
  27 21:20:15   -98.217607c -9.94c -5.63c -3.63  
  28 21:20:17   -98.217607c -10.01c -5.76c -3.41  
  29 21:20:19   -98.217607c -10.37c -5.84c -3.50  
  30 21:20:22   -98.217607c -10.81c -6.01c -3.88  
  31 21:20:25   -98.217607c -11.16c -6.11c -4.18c 

Converged after 31 iterations.

Dipole moment: (14.012183, -7.705176, -0.006360) |e|*Ang

Energy contributions relative to reference atoms: (reference = -526675.923698)

Kinetic:         -1.079127
Potential:      -22.351627
External:        +0.000000
XC:             -74.272912
Entropy (-ST):   -0.000378
Local:           -0.513751
--------------------------
Free energy:    -98.217797
Extrapolated:   -98.217607

Showing only first 2 kpts
 Kpt  Band  Eigenvalues  Occupancy
  0    50     -0.38936    2.00000
  0    51     -0.26113    1.99998
  0    52      2.05788    0.00002
  0    53      2.20890    0.00000

  1    50     -0.40844    2.00000
  1    51      0.05978    1.99959
  1    52      2.19802    0.00001
  1    53      2.22719    0.00000


Fermi level: 0.90873

Gap: 1.489 eV
Transition (v -> c):
  (s=0, k=2, n=51, [0.08, -0.08, 0.00]) -> (s=0, k=11, n=52, [0.25, 0.42, 0.00])

Forces in eV/Ang:
  0 Mo   -0.06749   -0.40873   -0.09075
  1 S    -0.10101   -0.05806    0.05307
  2 S    -0.19747    0.05486    0.03803
  3 Mo    0.62653   -0.22096   -0.45844
  4 S    -0.05093    0.59517    0.27142
  5 S     0.02214    0.14384    0.11736
  6 Mo   -0.32867   -0.01030   -0.17866
  7 S     0.07935    0.07416    0.38305
  8 S     0.11164    0.19793    0.04491
  9 Mo   -0.13233   -0.05596   -0.60601
 10 S    -0.01712   -0.08916    0.26189
 11 S     0.05526   -0.22238    0.16366

System changes: positions 

Initializing position-dependent things.

Density initialized from wave functions
                                   
                                   
                                   
                                   
              S       S            
                                   
         Mo     SMo     S          
                                   
           Mo S    Mo S            
                                   
                S       S          
                                   
                                   
                                   
                                   

Positions:
   0 Mo     0.020923    0.033615    6.550973    ( 0.0000,  0.0000,  0.0000)
   1 S      1.639570    0.899214    8.088175    ( 0.0000,  0.0000,  0.0000)
   2 S      1.655019    0.901361    5.038466    ( 0.0000,  0.0000,  0.0000)
   3 Mo    -1.633004    2.742519    6.555746    ( 0.0000,  0.0000,  0.0000)
   4 S     -0.012465    3.571834    8.078415    ( 0.0000,  0.0000,  0.0000)
   5 S     -0.003424    3.602992    5.036792    ( 0.0000,  0.0000,  0.0000)
   6 Mo     3.204446   -0.059340    6.569493    ( 0.0000,  0.0000,  0.0000)
   7 S      4.764327    0.901312    8.068729    ( 0.0000,  0.0000,  0.0000)
   8 S      4.752714    0.891330    5.028679    ( 0.0000,  0.0000,  0.0000)
   9 Mo     1.613342    2.736640    6.572648    ( 0.0000,  0.0000,  0.0000)
  10 S      3.179857    3.714279    8.072997    ( 0.0000,  0.0000,  0.0000)
  11 S      3.164621    3.716495    5.022056    ( 0.0000,  0.0000,  0.0000)

Unit cell:
           periodic     x           y           z      points  spacing
  1. axis:    yes    6.360000    0.000000    0.000000    28     0.1967
  2. axis:    yes   -3.180000    5.507922    0.000000    28     0.1967
  3. axis:    no     0.000000   -0.000000   13.190000    60     0.2198

  Lengths:   6.360000   6.360000  13.190000
  Angles:   90.000000  90.000000 120.000000

Effective grid spacing dv^(1/3) = 0.2142

iter     time        total  log10-change:       
                    energy  eigst   dens  force  
   1 21:20:28   -98.247143  -2.88                
   2 21:20:31   -98.246163  -4.03  -2.84         
   3 21:20:33   -98.244794c -4.01  -2.91         
   4 21:20:35   -98.244595c -5.14  -3.16         
   5 21:20:38   -98.244458c -4.67  -3.26         
   6 21:20:40   -98.244504c -5.16  -3.53         
   7 21:20:43   -98.244423c -5.66  -3.55         
   8 21:20:46   -98.244428c -6.45  -3.84         
   9 21:20:48   -98.244417c -6.23  -3.91         
  10 21:20:50   -98.244416c -6.61  -4.13c        
  11 21:20:54   -98.244416c -7.55c -4.30c        
  12 21:20:57   -98.244415c -7.17  -4.40c -2.11  
  13 21:20:59   -98.244415c -8.16c -4.67c -2.48  
  14 21:21:03   -98.244415c -8.18c -4.73c -2.34  
  15 21:21:05   -98.244415c -8.30c -4.90c -2.53  
  16 21:21:09   -98.244415c -9.01c -5.03c -2.92  
  17 21:21:12   -98.244415c -9.59c -5.17c -3.08  
  18 21:21:15   -98.244415c -8.88c -5.30c -2.95  
  19 21:21:18   -98.244415c -9.67c -5.70c -3.52  
  20 21:21:21   -98.244415c -10.38c -5.83c -3.85  
  21 21:21:24   -98.244415c -10.35c -5.90c -3.70  
  22 21:21:28   -98.244415c -10.51c -5.96c -3.62  
  23 21:21:31   -98.244415c -11.35c -6.15c -4.29c 

Converged after 23 iterations.

Dipole moment: (13.799084, -7.564521, -0.004821) |e|*Ang

Energy contributions relative to reference atoms: (reference = -526675.923698)

Kinetic:         -0.149724
Potential:      -23.109807
External:        +0.000000
XC:             -74.465188
Entropy (-ST):   -0.000381
Local:           -0.519507
--------------------------
Free energy:    -98.244605
Extrapolated:   -98.244415

Showing only first 2 kpts
 Kpt  Band  Eigenvalues  Occupancy
  0    50     -0.39461    2.00000
  0    51     -0.26498    1.99998
  0    52      2.05906    0.00002
  0    53      2.22253    0.00000

  1    50     -0.41424    2.00000
  1    51      0.06182    1.99959
  1    52      2.20076    0.00000
  1    53      2.23166    0.00000


Fermi level: 0.90993

Gap: 1.483 eV
Transition (v -> c):
  (s=0, k=2, n=51, [0.08, -0.08, 0.00]) -> (s=0, k=11, n=52, [0.25, 0.42, 0.00])

Forces in eV/Ang:
  0 Mo   -0.06327   -0.34534   -0.05920
  1 S    -0.11117   -0.02368    0.13041
  2 S    -0.18001    0.05648   -0.03457
  3 Mo    0.44983   -0.19469   -0.32757
  4 S     0.02434    0.47610    0.23901
  5 S     0.02323    0.16490    0.02888
  6 Mo   -0.23097    0.03746   -0.16965
  7 S     0.06229    0.05785    0.31408
  8 S     0.08629    0.15154   -0.01488
  9 Mo   -0.06785   -0.02886   -0.44564
 10 S    -0.03116   -0.11863    0.27180
 11 S     0.03843   -0.23313    0.06719

System changes: positions 

Initializing position-dependent things.

Density initialized from wave functions
                                  
                                  
                                  
                                  
             S       S            
                                  
         Mo    S Mo    S          
                                  
           MoS     MoS            
                                  
                S      S          
                                  
                                  
                                  
                                  

Positions:
   0 Mo     0.013844    0.011713    6.553328    ( 0.0000,  0.0000,  0.0000)
   1 S      1.626177    0.895785    8.074549    ( 0.0000,  0.0000,  0.0000)
   2 S      1.633091    0.896681    5.039430    ( 0.0000,  0.0000,  0.0000)
   3 Mo    -1.599277    2.735955    6.547906    ( 0.0000,  0.0000,  0.0000)
   4 S     -0.017698    3.616689    8.087628    ( 0.0000,  0.0000,  0.0000)
   5 S      0.001799    3.614496    5.036285    ( 0.0000,  0.0000,  0.0000)
   6 Mo     3.193045   -0.050645    6.564456    ( 0.0000,  0.0000,  0.0000)
   7 S      4.770070    0.903286    8.084031    ( 0.0000,  0.0000,  0.0000)
   8 S      4.763054    0.898349    5.035177    ( 0.0000,  0.0000,  0.0000)
   9 Mo     1.600369    2.736258    6.556356    ( 0.0000,  0.0000,  0.0000)
  10 S      3.184543    3.695662    8.069152    ( 0.0000,  0.0000,  0.0000)
  11 S      3.176910    3.698021    5.034866    ( 0.0000,  0.0000,  0.0000)

Unit cell:
           periodic     x           y           z      points  spacing
  1. axis:    yes    6.360000    0.000000    0.000000    28     0.1967
  2. axis:    yes   -3.180000    5.507922    0.000000    28     0.1967
  3. axis:    no     0.000000   -0.000000   13.190000    60     0.2198

  Lengths:   6.360000   6.360000  13.190000
  Angles:   90.000000  90.000000 120.000000

Effective grid spacing dv^(1/3) = 0.2142

iter     time        total  log10-change:       
                    energy  eigst   dens  force  
   1 21:21:35   -98.318394  -1.88                
   2 21:21:38   -98.306770  -3.02  -2.35         
   3 21:21:41   -98.293533c -3.01  -2.44         
   4 21:21:43   -98.291736c -4.17  -2.66         
   5 21:21:46   -98.290334c -3.69  -2.76         
   6 21:21:48   -98.290942c -4.16  -3.05         
   7 21:21:51   -98.290017c -4.64  -3.05         
   8 21:21:53   -98.290078c -5.50  -3.39         
   9 21:21:56   -98.289969c -5.26  -3.42         
  10 21:21:58   -98.289963c -5.75  -3.66         
  11 21:22:00   -98.289959c -6.58  -3.79         
  12 21:22:03   -98.289955c -6.63  -3.95         
  13 21:22:05   -98.289953c -6.88  -4.11c        
  14 21:22:07   -98.289953c -7.16  -4.23c        
  15 21:22:10   -98.289952c -7.44c -4.34c        
  16 21:22:13   -98.289953c -7.98c -4.59c -2.49  
  17 21:22:16   -98.289952c -8.44c -4.63c -2.58  
  18 21:22:19   -98.289952c -8.08c -4.71c -2.45  
  19 21:22:22   -98.289952c -8.72c -4.91c -2.78  
  20 21:22:25   -98.289952c -8.60c -4.97c -2.70  
  21 21:22:28   -98.289952c -8.99c -5.09c -3.11  
  22 21:22:31   -98.289952c -9.32c -5.29c -3.12  
  23 21:22:34   -98.289952c -9.13c -5.47c -2.96  
  24 21:22:36   -98.289952c -10.09c -5.86c -3.76  
  25 21:22:38   -98.289952c -10.49c -5.97c -4.03c 

Converged after 25 iterations.

Dipole moment: (13.198988, -7.038525, 0.001260) |e|*Ang

Energy contributions relative to reference atoms: (reference = -526675.923698)

Kinetic:         +0.703198
Potential:      -23.827468
External:        +0.000000
XC:             -74.640961
Entropy (-ST):   -0.000377
Local:           -0.524532
--------------------------
Free energy:    -98.290141
Extrapolated:   -98.289952

Showing only first 2 kpts
 Kpt  Band  Eigenvalues  Occupancy
  0    50     -0.39745    2.00000
  0    51     -0.27639    1.99999
  0    52      2.06686    0.00002
  0    53      2.25207    0.00000

  1    50     -0.41651    2.00000
  1    51      0.06059    1.99960
  1    52      2.20284    0.00000
  1    53      2.24049    0.00000


Fermi level: 0.91199

Gap: 1.482 eV
Transition (v -> c):
  (s=0, k=2, n=51, [0.08, -0.08, 0.00]) -> (s=0, k=11, n=52, [0.25, 0.42, 0.00])

Forces in eV/Ang:
  0 Mo   -0.03545   -0.09429    0.05628
  1 S    -0.13927    0.07007    0.21549
  2 S    -0.14125    0.03039   -0.19230
  3 Mo   -0.08911   -0.01887    0.16671
  4 S     0.19707    0.09686    0.04885
  5 S     0.02835    0.20576   -0.20773
  6 Mo    0.06489    0.18900   -0.07258
  7 S     0.01383   -0.01138    0.02900
  8 S     0.02616   -0.02946   -0.15616
  9 Mo    0.08340    0.02334    0.11853
 10 S    -0.02908   -0.22203    0.17206
 11 S     0.02047   -0.23951   -0.17882

System changes: positions 

Initializing position-dependent things.

Density initialized from wave functions
                                  
                                  
                                  
                                  
             S       S            
                                  
         Mo    S Mo    S          
                                  
           MoS     MoS            
                                  
               S       S          
                                  
                                  
                                  
                                  

Positions:
   0 Mo     0.011754    0.005726    6.554491    ( 0.0000,  0.0000,  0.0000)
   1 S      1.621069    0.896041    8.074363    ( 0.0000,  0.0000,  0.0000)
   2 S      1.626063    0.895893    5.037077    ( 0.0000,  0.0000,  0.0000)
   3 Mo    -1.593429    2.734465    6.548809    ( 0.0000,  0.0000,  0.0000)
   4 S     -0.016094    3.628006    8.090288    ( 0.0000,  0.0000,  0.0000)
   5 S      0.003441    3.620052    5.033196    ( 0.0000,  0.0000,  0.0000)
   6 Mo     3.191700   -0.045807    6.562104    ( 0.0000,  0.0000,  0.0000)
   7 S      4.771557    0.903478    8.087705    ( 0.0000,  0.0000,  0.0000)
   8 S      4.765772    0.899307    5.034637    ( 0.0000,  0.0000,  0.0000)
   9 Mo     1.598691    2.736548    6.554683    ( 0.0000,  0.0000,  0.0000)
  10 S      3.185314    3.688091    8.070431    ( 0.0000,  0.0000,  0.0000)
  11 S      3.180091    3.690451    5.035366    ( 0.0000,  0.0000,  0.0000)

Unit cell:
           periodic     x           y           z      points  spacing
  1. axis:    yes    6.360000    0.000000    0.000000    28     0.1967
  2. axis:    yes   -3.180000    5.507922    0.000000    28     0.1967
  3. axis:    no     0.000000   -0.000000   13.190000    60     0.2198

  Lengths:   6.360000   6.360000  13.190000
  Angles:   90.000000  90.000000 120.000000

Effective grid spacing dv^(1/3) = 0.2142

iter     time        total  log10-change:       
                    energy  eigst   dens  force  
   1 21:22:42   -98.299173  -3.15                
   2 21:22:44   -98.299166  -4.28  -3.22         
   3 21:22:46   -98.299024c -4.78  -3.26         
   4 21:22:48   -98.299001c -5.67  -3.46         
   5 21:22:51   -98.298981c -5.66  -3.53         
   6 21:22:53   -98.298997c -5.87  -3.76         
   7 21:22:55   -98.298974c -6.14  -3.85         
   8 21:22:57   -98.298974c -7.00  -4.19c        
   9 21:23:00   -98.298973c -7.08  -4.26c        
  10 21:23:03   -98.298973c -7.55c -4.48c        
  11 21:23:06   -98.298973c -7.77c -4.61c -2.56  
  12 21:23:09   -98.298972c -8.17c -4.73c -2.72  
  13 21:23:12   -98.298972c -8.60c -4.95c -3.30  
  14 21:23:15   -98.298972c -8.94c -5.02c -2.93  
  15 21:23:18   -98.298972c -8.87c -5.19c -2.81  
  16 21:23:20   -98.298972c -9.86c -5.36c -3.40  
  17 21:23:22   -98.298972c -9.24c -5.45c -2.88  
  18 21:23:25   -98.298972c -10.03c -5.71c -3.80  
  19 21:23:27   -98.298972c -10.15c -5.87c -3.47  
  20 21:23:29   -98.298972c -10.75c -6.09c -3.78  
  21 21:23:31   -98.298972c -11.06c -6.25c -4.13c 

Converged after 21 iterations.

Dipole moment: (13.192305, -6.987885, 0.001692) |e|*Ang

Energy contributions relative to reference atoms: (reference = -526675.923698)

Kinetic:         -0.112499
Potential:      -23.186433
External:        +0.000000
XC:             -74.480629
Entropy (-ST):   -0.000362
Local:           -0.519231
--------------------------
Free energy:    -98.299154
Extrapolated:   -98.298972

Showing only first 2 kpts
 Kpt  Band  Eigenvalues  Occupancy
  0    50     -0.39284    2.00000
  0    51     -0.27943    1.99999
  0    52      2.07256    0.00002
  0    53      2.25394    0.00000

  1    50     -0.41240    2.00000
  1    51      0.05648    1.99962
  1    52      2.20632    0.00000
  1    53      2.24410    0.00000


Fermi level: 0.91323

Gap: 1.494 eV
Transition (v -> c):
  (s=0, k=2, n=51, [0.08, -0.08, 0.00]) -> (s=0, k=11, n=52, [0.25, 0.42, 0.00])

Forces in eV/Ang:
  0 Mo   -0.01908   -0.05672    0.05159
  1 S    -0.11958    0.07136    0.18759
  2 S    -0.12004    0.03216   -0.16430
  3 Mo   -0.12294    0.02486    0.18704
  4 S     0.20248    0.02729   -0.01061
  5 S     0.01962    0.18443   -0.17171
  6 Mo    0.07211    0.18405   -0.03773
  7 S     0.00440   -0.02621   -0.02667
  8 S     0.02256   -0.04584   -0.14576
  9 Mo    0.07247    0.01734    0.15775
 10 S    -0.02592   -0.20237    0.14643
 11 S     0.01385   -0.21020   -0.17386

System changes: positions 

Initializing position-dependent things.

Density initialized from wave functions
                                  
                                  
                                  
                                  
             S       S            
                                  
         Mo    S Mo    S          
                                  
           MoS     MoS            
                                  
               S       S          
                                  
                                  
                                  
                                  

Positions:
   0 Mo     0.006452   -0.010554    6.558209    ( 0.0000,  0.0000,  0.0000)
   1 S      1.605612    0.898635    8.079309    ( 0.0000,  0.0000,  0.0000)
   2 S      1.605807    0.895298    5.027416    ( 0.0000,  0.0000,  0.0000)
   3 Mo    -1.582154    2.731982    6.555368    ( 0.0000,  0.0000,  0.0000)
   4 S     -0.006217    3.655717    8.095823    ( 0.0000,  0.0000,  0.0000)
   5 S      0.007737    3.638713    5.022043    ( 0.0000,  0.0000,  0.0000)
   6 Mo     3.189723   -0.029035    6.555482    ( 0.0000,  0.0000,  0.0000)
   7 S      4.775235    0.903055    8.095616    ( 0.0000,  0.0000,  0.0000)
   8 S      4.773100    0.900452    5.029361    ( 0.0000,  0.0000,  0.0000)
   9 Mo     1.596351    2.737378    6.554192    ( 0.0000,  0.0000,  0.0000)
  10 S      3.186333    3.664394    8.078348    ( 0.0000,  0.0000,  0.0000)
  11 S      3.187945    3.666229    5.031953    ( 0.0000,  0.0000,  0.0000)

Unit cell:
           periodic     x           y           z      points  spacing
  1. axis:    yes    6.360000    0.000000    0.000000    28     0.1967
  2. axis:    yes   -3.180000    5.507922    0.000000    28     0.1967
  3. axis:    no     0.000000   -0.000000   13.190000    60     0.2198

  Lengths:   6.360000   6.360000  13.190000
  Angles:   90.000000  90.000000 120.000000

Effective grid spacing dv^(1/3) = 0.2142

iter     time        total  log10-change:       
                    energy  eigst   dens  force  
   1 21:23:34   -98.319637  -2.26                
   2 21:23:35   -98.319501  -3.39  -2.73         
   3 21:23:37   -98.317731c -3.78  -2.76         
   4 21:23:39   -98.317575c -4.66  -3.01         
   5 21:23:40   -98.317414c -4.68  -3.08         
   6 21:23:42   -98.317616c -4.76  -3.28         
   7 21:23:43   -98.317377c -5.27  -3.37         
   8 21:23:45   -98.317363c -5.82  -3.64         
   9 21:23:47   -98.317356c -6.12  -3.73         
  10 21:23:49   -98.317352c -5.82  -3.95         
  11 21:23:50   -98.317347c -6.93  -4.10c        
  12 21:23:52   -98.317347c -6.90  -4.23c        
  13 21:23:53   -98.317347c -7.27  -4.33c        
  14 21:23:56   -98.317347c -7.63c -4.49c        
  15 21:23:58   -98.317347c -8.27c -4.71c -2.72  
  16 21:24:00   -98.317347c -8.14c -4.88c -2.37  
  17 21:24:03   -98.317347c -8.96c -5.12c -2.79  
  18 21:24:05   -98.317347c -9.37c -5.25c -3.32  
  19 21:24:07   -98.317347c -9.49c -5.35c -3.33  
  20 21:24:10   -98.317347c -9.14c -5.47c -2.92  
  21 21:24:12   -98.317347c -10.03c -5.74c -3.67  
  22 21:24:14   -98.317347c -10.74c -5.83c -4.03c 

Converged after 22 iterations.

Dipole moment: (13.342640, -6.989245, 0.000941) |e|*Ang

Energy contributions relative to reference atoms: (reference = -526675.923698)

Kinetic:         -3.685880
Potential:      -20.357794
External:        +0.000000
XC:             -73.777246
Entropy (-ST):   -0.000309
Local:           -0.496273
--------------------------
Free energy:    -98.317501
Extrapolated:   -98.317347

Showing only first 2 kpts
 Kpt  Band  Eigenvalues  Occupancy
  0    50     -0.37407    2.00000
  0    51     -0.28927    1.99999
  0    52      2.09239    0.00002
  0    53      2.24858    0.00000

  1    50     -0.39624    2.00000
  1    51      0.03942    1.99969
  1    52      2.22174    0.00000
  1    53      2.25242    0.00000


Fermi level: 0.91751

Gap: 1.541 eV
Transition (v -> c):
  (s=0, k=2, n=51, [0.08, -0.08, 0.00]) -> (s=0, k=16, n=52, [0.42, 0.25, 0.00])

Forces in eV/Ang:
  0 Mo    0.02583    0.00315   -0.01223
  1 S    -0.04010    0.03708    0.04852
  2 S    -0.04891    0.03777    0.00508
  3 Mo   -0.08475    0.10148    0.07794
  4 S     0.14782   -0.09832   -0.14936
  5 S    -0.01044    0.08596    0.04390
  6 Mo    0.01410    0.10288    0.03676
  7 S    -0.01098   -0.05025   -0.13393
  8 S     0.02565   -0.03892   -0.02915
  9 Mo   -0.00488   -0.01100    0.10135
 10 S    -0.00870   -0.08444    0.05965
 11 S    -0.00492   -0.08514   -0.04880

System changes: positions 

Initializing position-dependent things.

Density initialized from wave functions
                                  
                                  
                                  
                                  
             S       S            
                                  
         Mo    S Mo    S          
                                  
           MoS     MoS            
                                  
               S       S          
                                  
                                  
                                  
                                  

Positions:
   0 Mo     0.006211   -0.012845    6.558403    ( 0.0000,  0.0000,  0.0000)
   1 S      1.602658    0.899958    8.082470    ( 0.0000,  0.0000,  0.0000)
   2 S      1.602277    0.896283    5.025428    ( 0.0000,  0.0000,  0.0000)
   3 Mo    -1.582874    2.733141    6.557744    ( 0.0000,  0.0000,  0.0000)
   4 S     -0.001424    3.657287    8.094420    ( 0.0000,  0.0000,  0.0000)
   5 S      0.008077    3.643315    5.020624    ( 0.0000,  0.0000,  0.0000)
   6 Mo     3.189914   -0.024641    6.554686    ( 0.0000,  0.0000,  0.0000)
   7 S      4.775498    0.902158    8.094616    ( 0.0000,  0.0000,  0.0000)
   8 S      4.774363    0.899869    5.027321    ( 0.0000,  0.0000,  0.0000)
   9 Mo     1.596698    2.737329    6.555899    ( 0.0000,  0.0000,  0.0000)
  10 S      3.185964    3.659488    8.081828    ( 0.0000,  0.0000,  0.0000)
  11 S      3.188556    3.660927    5.029666    ( 0.0000,  0.0000,  0.0000)

Unit cell:
           periodic     x           y           z      points  spacing
  1. axis:    yes    6.360000    0.000000    0.000000    28     0.1967
  2. axis:    yes   -3.180000    5.507922    0.000000    28     0.1967
  3. axis:    no     0.000000   -0.000000   13.190000    60     0.2198

  Lengths:   6.360000   6.360000  13.190000
  Angles:   90.000000  90.000000 120.000000

Effective grid spacing dv^(1/3) = 0.2142

iter     time        total  log10-change:       
                    energy  eigst   dens  force  
   1 21:24:17   -98.320951  -3.54                
   2 21:24:18   -98.320699  -4.67  -3.14         
   3 21:24:20   -98.320380c -4.66  -3.21         
   4 21:24:22   -98.320334c -5.74  -3.47         
   5 21:24:23   -98.320293c -5.32  -3.55         
   6 21:24:25   -98.320301c -5.80  -3.84         
   7 21:24:27   -98.320287c -6.39  -3.88         
   8 21:24:29   -98.320288c -6.91  -4.12c        
   9 21:24:30   -98.320285c -6.88  -4.22c        
  10 21:24:32   -98.320285c -7.35  -4.45c        
  11 21:24:34   -98.320285c -8.11c -4.57c        
  12 21:24:37   -98.320285c -7.94c -4.68c -2.51  
  13 21:24:39   -98.320285c -8.40c -4.90c -2.60  
  14 21:24:41   -98.320285c -8.81c -5.03c -2.96  
  15 21:24:44   -98.320285c -8.98c -5.10c -3.25  
  16 21:24:46   -98.320285c -9.36c -5.33c -3.01  
  17 21:24:48   -98.320285c -9.94c -5.43c -3.72  
  18 21:24:50   -98.320285c -9.73c -5.51c -3.50  
  19 21:24:53   -98.320285c -9.89c -5.67c -3.44  
  20 21:24:55   -98.320285c -10.43c -5.78c -3.80  
  21 21:24:57   -98.320285c -10.07c -5.83c -3.32  
  22 21:24:59   -98.320285c -10.75c -5.99c -4.23c 

Converged after 22 iterations.

Dipole moment: (13.420653, -7.066148, 0.000182) |e|*Ang

Energy contributions relative to reference atoms: (reference = -526675.923698)

Kinetic:         -4.464646
Potential:      -19.739282
External:        +0.000000
XC:             -73.624971
Entropy (-ST):   -0.000299
Local:           -0.491236
--------------------------
Free energy:    -98.320434
Extrapolated:   -98.320285

Showing only first 2 kpts
 Kpt  Band  Eigenvalues  Occupancy
  0    50     -0.37056    1.99999
  0    51     -0.29011    1.99999
  0    52      2.09645    0.00002
  0    53      2.24500    0.00000

  1    50     -0.39361    2.00000
  1    51      0.03607    1.99971
  1    52      2.22798    0.00000
  1    53      2.25047    0.00000


Fermi level: 0.91836

Gap: 1.552 eV
Transition (v -> c):
  (s=0, k=2, n=51, [0.08, -0.08, 0.00]) -> (s=0, k=16, n=52, [0.42, 0.25, 0.00])

Forces in eV/Ang:
  0 Mo    0.02528   -0.01232   -0.02334
  1 S    -0.01980    0.01316    0.00541
  2 S    -0.03056    0.03613    0.05025
  3 Mo   -0.02175    0.07088    0.00329
  4 S     0.09700   -0.07528   -0.13657
  5 S    -0.01647    0.05684    0.09962
  6 Mo   -0.02244    0.05539    0.03655
  7 S    -0.00531   -0.03827   -0.11790
  8 S     0.02752   -0.01054    0.01574
  9 Mo   -0.02010   -0.01722    0.02711
 10 S    -0.00292   -0.03486    0.03412
 11 S    -0.01034   -0.04458    0.00541

System changes: positions 

Initializing position-dependent things.

Density initialized from wave functions
                                  
                                  
                                  
                                  
             S       S            
                                  
         Mo    S Mo    S          
                                  
           MoS     MoS            
                                  
               S       S          
                                  
                                  
                                  
                                  

Positions:
   0 Mo     0.006765   -0.014297    6.557977    ( 0.0000,  0.0000,  0.0000)
   1 S      1.600695    0.901164    8.085315    ( 0.0000,  0.0000,  0.0000)
   2 S      1.599964    0.897983    5.025095    ( 0.0000,  0.0000,  0.0000)
   3 Mo    -1.584382    2.735261    6.559174    ( 0.0000,  0.0000,  0.0000)
   4 S      0.003932    3.655670    8.090594    ( 0.0000,  0.0000,  0.0000)
   5 S      0.007757    3.647295    5.021888    ( 0.0000,  0.0000,  0.0000)
   6 Mo     3.189620   -0.020982    6.554980    ( 0.0000,  0.0000,  0.0000)
   7 S      4.775439    0.900806    8.091288    ( 0.0000,  0.0000,  0.0000)
   8 S      4.775485    0.899280    5.026050    ( 0.0000,  0.0000,  0.0000)
   9 Mo     1.596944    2.736895    6.557545    ( 0.0000,  0.0000,  0.0000)
  10 S      3.185434    3.656208    8.085299    ( 0.0000,  0.0000,  0.0000)
  11 S      3.188267    3.656971    5.027883    ( 0.0000,  0.0000,  0.0000)

Unit cell:
           periodic     x           y           z      points  spacing
  1. axis:    yes    6.360000    0.000000    0.000000    28     0.1967
  2. axis:    yes   -3.180000    5.507922    0.000000    28     0.1967
  3. axis:    no     0.000000   -0.000000   13.190000    60     0.2198

  Lengths:   6.360000   6.360000  13.190000
  Angles:   90.000000  90.000000 120.000000

Effective grid spacing dv^(1/3) = 0.2142

iter     time        total  log10-change:       
                    energy  eigst   dens  force  
   1 21:25:02   -98.322914  -3.62                
   2 21:25:04   -98.322698  -4.73  -3.18         
   3 21:25:06   -98.322406c -4.73  -3.25         
   4 21:25:07   -98.322354c -5.82  -3.48         
   5 21:25:09   -98.322317c -5.53  -3.59         
   6 21:25:10   -98.322318c -6.02  -3.84         
   7 21:25:12   -98.322310c -6.28  -3.94         
   8 21:25:14   -98.322309c -6.75  -4.17c        
   9 21:25:15   -98.322308c -7.31  -4.31c        
  10 21:25:18   -98.322308c -7.73c -4.48c        
  11 21:25:20   -98.322307c -7.94c -4.57c -2.49  
  12 21:25:22   -98.322307c -8.27c -4.76c -2.69  
  13 21:25:24   -98.322307c -8.36c -4.92c -2.55  
  14 21:25:27   -98.322307c -8.72c -5.07c -2.71  
  15 21:25:29   -98.322307c -9.06c -5.14c -2.90  
  16 21:25:31   -98.322307c -8.78c -5.22c -2.68  
  17 21:25:34   -98.322307c -9.55c -5.53c -3.23  
  18 21:25:36   -98.322307c -10.46c -5.67c -3.64  
  19 21:25:38   -98.322307c -10.28c -5.71c -3.63  
  20 21:25:40   -98.322307c -10.24c -5.86c -3.67  
  21 21:25:42   -98.322307c -10.80c -5.99c -4.11c 

Converged after 21 iterations.

Dipole moment: (13.456708, -7.144768, -0.000453) |e|*Ang

Energy contributions relative to reference atoms: (reference = -526675.923698)

Kinetic:         -4.555037
Potential:      -19.668449
External:        +0.000000
XC:             -73.608003
Entropy (-ST):   -0.000298
Local:           -0.490669
--------------------------
Free energy:    -98.322456
Extrapolated:   -98.322307

Showing only first 2 kpts
 Kpt  Band  Eigenvalues  Occupancy
  0    50     -0.37060    1.99999
  0    51     -0.28878    1.99999
  0    52      2.09753    0.00002
  0    53      2.24279    0.00000

  1    50     -0.39399    2.00000
  1    51      0.03606    1.99971
  1    52      2.23330    0.00000
  1    53      2.24612    0.00000


Fermi level: 0.91857

Gap: 1.554 eV
Transition (v -> c):
  (s=0, k=2, n=51, [0.08, -0.08, 0.00]) -> (s=0, k=11, n=52, [0.25, 0.42, 0.00])

Forces in eV/Ang:
  0 Mo    0.01249   -0.03123   -0.01991
  1 S    -0.00931   -0.00991   -0.01853
  2 S    -0.01509    0.02587    0.06231
  3 Mo    0.02832    0.01318   -0.04998
  4 S     0.03318   -0.02897   -0.07811
  5 S    -0.01695    0.03564    0.10573
  6 Mo   -0.04089    0.01056    0.01652
  7 S     0.00562   -0.01412   -0.07243
  8 S     0.02241    0.01703    0.04470
  9 Mo   -0.00953   -0.01551   -0.03770
 10 S     0.00360    0.00585    0.00753
 11 S    -0.01360   -0.00933    0.03943

System changes: positions 

Initializing position-dependent things.

Density initialized from wave functions
                                  
                                  
                                  
                                  
             S       S            
                                  
         Mo    S Mo    S          
                                  
           MoS     MoS            
                                  
               S       S          
                                  
                                  
                                  
                                  

Positions:
   0 Mo     0.007220   -0.015543    6.557496    ( 0.0000,  0.0000,  0.0000)
   1 S      1.599588    0.901504    8.086078    ( 0.0000,  0.0000,  0.0000)
   2 S      1.598568    0.899174    5.026113    ( 0.0000,  0.0000,  0.0000)
   3 Mo    -1.584473    2.736485    6.558996    ( 0.0000,  0.0000,  0.0000)
   4 S      0.006899    3.654514    8.087374    ( 0.0000,  0.0000,  0.0000)
   5 S      0.007319    3.649756    5.024402    ( 0.0000,  0.0000,  0.0000)
   6 Mo     3.188745   -0.019107    6.555496    ( 0.0000,  0.0000,  0.0000)
   7 S      4.775534    0.899930    8.088393    ( 0.0000,  0.0000,  0.0000)
   8 S      4.776444    0.899325    5.026350    ( 0.0000,  0.0000,  0.0000)
   9 Mo     1.596815    2.736421    6.557687    ( 0.0000,  0.0000,  0.0000)
  10 S      3.185313    3.654769    8.086826    ( 0.0000,  0.0000,  0.0000)
  11 S      3.187950    3.655003    5.027861    ( 0.0000,  0.0000,  0.0000)

Unit cell:
           periodic     x           y           z      points  spacing
  1. axis:    yes    6.360000    0.000000    0.000000    28     0.1967
  2. axis:    yes   -3.180000    5.507922    0.000000    28     0.1967
  3. axis:    no     0.000000   -0.000000   13.190000    60     0.2198

  Lengths:   6.360000   6.360000  13.190000
  Angles:   90.000000  90.000000 120.000000

Effective grid spacing dv^(1/3) = 0.2142

iter     time        total  log10-change:       
                    energy  eigst   dens  force  
   1 21:25:45   -98.323381  -4.07                
   2 21:25:47   -98.323332  -5.19  -3.40         
   3 21:25:48   -98.323217c -5.09  -3.45         
   4 21:25:50   -98.323202c -6.38  -3.80         
   5 21:25:52   -98.323195c -6.44  -3.87         
   6 21:25:53   -98.323196c -6.41  -4.02c        
   7 21:25:55   -98.323192c -6.72  -4.16c        
   8 21:25:57   -98.323192c -7.42c -4.40c        
   9 21:26:00   -98.323191c -7.33  -4.46c -2.33  
  10 21:26:02   -98.323191c -7.91c -4.75c -2.84  
  11 21:26:04   -98.323191c -8.37c -4.92c -2.58  
  12 21:26:07   -98.323191c -8.66c -5.09c -2.73  
  13 21:26:09   -98.323191c -9.06c -5.16c -2.94  
  14 21:26:11   -98.323191c -9.50c -5.32c -2.96  
  15 21:26:14   -98.323191c -9.47c -5.38c -3.16  
  16 21:26:16   -98.323191c -10.12c -5.50c -3.56  
  17 21:26:18   -98.323191c -9.87c -5.54c -3.56  
  18 21:26:21   -98.323191c -10.45c -5.70c -3.52  
  19 21:26:23   -98.323191c -10.14c -5.77c -3.57  
  20 21:26:25   -98.323191c -11.01c -6.00c -3.89  
  21 21:26:28   -98.323191c -10.76c -6.06c -3.80  
  22 21:26:30   -98.323191c -11.13c -6.28c -4.31c 

Converged after 22 iterations.

Dipole moment: (13.440571, -7.162832, -0.000458) |e|*Ang

Energy contributions relative to reference atoms: (reference = -526675.923698)

Kinetic:         -4.072596
Potential:      -20.052911
External:        +0.000000
XC:             -73.703808
Entropy (-ST):   -0.000303
Local:           -0.493724
--------------------------
Free energy:    -98.323343
Extrapolated:   -98.323191

Showing only first 2 kpts
 Kpt  Band  Eigenvalues  Occupancy
  0    50     -0.37318    2.00000
  0    51     -0.28703    1.99999
  0    52      2.09600    0.00002
  0    53      2.24314    0.00000

  1    50     -0.39637    2.00000
  1    51      0.03851    1.99970
  1    52      2.23398    0.00000
  1    53      2.24355    0.00000


Fermi level: 0.91818

Gap: 1.547 eV
Transition (v -> c):
  (s=0, k=2, n=51, [0.08, -0.08, 0.00]) -> (s=0, k=11, n=52, [0.25, 0.42, 0.00])

Forces in eV/Ang:
  0 Mo    0.00138   -0.03115   -0.00631
  1 S    -0.00820   -0.01758   -0.01677
  2 S    -0.00669    0.01356    0.03978
  3 Mo    0.03113   -0.01986   -0.04549
  4 S    -0.00234   -0.00360   -0.02651
  5 S    -0.01254    0.02621    0.06729
  6 Mo   -0.03098   -0.00664    0.00289
  7 S     0.01155    0.00209   -0.03512
  8 S     0.01299    0.02267    0.03924
  9 Mo    0.00865   -0.00844   -0.04280
 10 S     0.00770    0.01708   -0.00784
 11 S    -0.01269    0.00580    0.03162

System changes: positions 

Initializing position-dependent things.

Density initialized from wave functions
                                  
                                  
                                  
                                  
             S       S            
                                  
         Mo    S Mo    S          
                                  
           MoS     MoS            
                                  
               S       S          
                                  
                                  
                                  
                                  

Positions:
   0 Mo     0.007383   -0.016904    6.557261    ( 0.0000,  0.0000,  0.0000)
   1 S      1.598701    0.901279    8.085716    ( 0.0000,  0.0000,  0.0000)
   2 S      1.597454    0.899874    5.027417    ( 0.0000,  0.0000,  0.0000)
   3 Mo    -1.583601    2.736756    6.558184    ( 0.0000,  0.0000,  0.0000)
   4 S      0.008178    3.654375    8.085245    ( 0.0000,  0.0000,  0.0000)
   5 S      0.006947    3.651564    5.026900    ( 0.0000,  0.0000,  0.0000)
   6 Mo     3.187682   -0.018166    6.555892    ( 0.0000,  0.0000,  0.0000)
   7 S      4.775872    0.899528    8.086315    ( 0.0000,  0.0000,  0.0000)
   8 S      4.777307    0.899796    5.027385    ( 0.0000,  0.0000,  0.0000)
   9 Mo     1.596693    2.736041    6.557021    ( 0.0000,  0.0000,  0.0000)
  10 S      3.185535    3.654106    8.087086    ( 0.0000,  0.0000,  0.0000)
  11 S      3.187772    3.653978    5.028643    ( 0.0000,  0.0000,  0.0000)

Unit cell:
           periodic     x           y           z      points  spacing
  1. axis:    yes    6.360000    0.000000    0.000000    28     0.1967
  2. axis:    yes   -3.180000    5.507922    0.000000    28     0.1967
  3. axis:    no     0.000000   -0.000000   13.190000    60     0.2198

  Lengths:   6.360000   6.360000  13.190000
  Angles:   90.000000  90.000000 120.000000

Effective grid spacing dv^(1/3) = 0.2142

iter     time        total  log10-change:       
                    energy  eigst   dens  force  
   1 21:26:33   -98.323761  -4.25                
   2 21:26:35   -98.323706  -5.41  -3.47         
   3 21:26:36   -98.323625c -5.23  -3.53         
   4 21:26:38   -98.323614c -6.42  -3.82         
   5 21:26:40   -98.323606c -6.17  -3.89         
   6 21:26:41   -98.323608c -6.44  -4.15c        
   7 21:26:43   -98.323604c -6.97  -4.22c        
   8 21:26:45   -98.323604c -7.85c -4.48c        
   9 21:26:47   -98.323604c -7.53c -4.58c -2.28  
  10 21:26:50   -98.323604c -8.16c -4.83c -2.54  
  11 21:26:52   -98.323604c -8.88c -4.95c -3.09  
  12 21:26:55   -98.323604c -8.45c -5.04c -2.98  
  13 21:26:57   -98.323604c -9.31c -5.33c -3.57  
  14 21:26:59   -98.323604c -9.62c -5.37c -3.24  
  15 21:27:02   -98.323604c -9.32c -5.49c -3.09  
  16 21:27:04   -98.323604c -10.19c -5.66c -3.66  
  17 21:27:06   -98.323604c -10.15c -5.74c -3.64  
  18 21:27:09   -98.323604c -10.56c -5.92c -3.81  
  19 21:27:11   -98.323604c -10.78c -6.07c -4.17c 

Converged after 19 iterations.

Dipole moment: (13.412268, -7.141009, -0.000177) |e|*Ang

Energy contributions relative to reference atoms: (reference = -526675.923698)

Kinetic:         -3.444470
Potential:      -20.552780
External:        +0.000000
XC:             -73.828469
Entropy (-ST):   -0.000311
Local:           -0.497730
--------------------------
Free energy:    -98.323759
Extrapolated:   -98.323604

Showing only first 2 kpts
 Kpt  Band  Eigenvalues  Occupancy
  0    50     -0.37633    2.00000
  0    51     -0.28575    1.99999
  0    52      2.09389    0.00002
  0    53      2.24456    0.00000

  1    50     -0.39913    2.00000
  1    51      0.04145    1.99969
  1    52      2.23244    0.00000
  1    53      2.24230    0.00000


Fermi level: 0.91764

Gap: 1.539 eV
Transition (v -> c):
  (s=0, k=2, n=51, [0.08, -0.08, 0.00]) -> (s=0, k=11, n=52, [0.25, 0.42, 0.00])

Forces in eV/Ang:
  0 Mo   -0.00399   -0.01727    0.00413
  1 S    -0.00881   -0.01519   -0.00419
  2 S    -0.00207    0.00274    0.00874
  3 Mo    0.01048   -0.02530   -0.01649
  4 S    -0.01419    0.00144    0.00648
  5 S    -0.00580    0.01966    0.01826
  6 Mo   -0.00961   -0.00678   -0.00221
  7 S     0.01116    0.00776   -0.00887
  8 S     0.00319    0.01339    0.01740
  9 Mo    0.01808   -0.00065   -0.01676
 10 S     0.01016    0.01158   -0.01260
 11 S    -0.00855    0.00882    0.00673

System changes: positions 

Initializing position-dependent things.

Density initialized from wave functions
                                  
                                  
                                  
                                  
             S       S            
                                  
         Mo    S Mo    S          
                                  
           MoS     MoS            
                                  
               S       S          
                                  
                                  
                                  
                                  

Positions:
   0 Mo     0.007308   -0.017511    6.557318    ( 0.0000,  0.0000,  0.0000)
   1 S      1.598337    0.900921    8.085323    ( 0.0000,  0.0000,  0.0000)
   2 S      1.597110    0.899970    5.027887    ( 0.0000,  0.0000,  0.0000)
   3 Mo    -1.583062    2.736377    6.557739    ( 0.0000,  0.0000,  0.0000)
   4 S      0.008034    3.654608    8.084962    ( 0.0000,  0.0000,  0.0000)
   5 S      0.006812    3.652223    5.027723    ( 0.0000,  0.0000,  0.0000)
   6 Mo     3.187275   -0.018103    6.555968    ( 0.0000,  0.0000,  0.0000)
   7 S      4.776159    0.899593    8.085809    ( 0.0000,  0.0000,  0.0000)
   8 S      4.777582    0.900138    5.027996    ( 0.0000,  0.0000,  0.0000)
   9 Mo     1.596852    2.735963    6.556581    ( 0.0000,  0.0000,  0.0000)
  10 S      3.185825    3.654120    8.086713    ( 0.0000,  0.0000,  0.0000)
  11 S      3.187692    3.653933    5.029058    ( 0.0000,  0.0000,  0.0000)

Unit cell:
           periodic     x           y           z      points  spacing
  1. axis:    yes    6.360000    0.000000    0.000000    28     0.1967
  2. axis:    yes   -3.180000    5.507922    0.000000    28     0.1967
  3. axis:    no     0.000000   -0.000000   13.190000    60     0.2198

  Lengths:   6.360000   6.360000  13.190000
  Angles:   90.000000  90.000000 120.000000

Effective grid spacing dv^(1/3) = 0.2142

iter     time        total  log10-change:       
                    energy  eigst   dens  force  
   1 21:27:14   -98.323708  -5.04                
   2 21:27:15   -98.323697  -6.19  -3.86         
   3 21:27:17   -98.323686c -6.08  -3.93         
   4 21:27:19   -98.323684c -7.16  -4.18c        
   5 21:27:21   -98.323682c -6.82  -4.26c        
   6 21:27:22   -98.323683c -7.30  -4.64c        
   7 21:27:25   -98.323682c -8.03c -4.65c        
   8 21:27:27   -98.323682c -8.49c -4.84c -2.77  
   9 21:27:29   -98.323682c -8.32c -5.00c -2.65  
  10 21:27:31   -98.323682c -9.14c -5.28c -3.01  
  11 21:27:34   -98.323682c -9.60c -5.40c -3.36  
  12 21:27:36   -98.323682c -9.41c -5.50c -3.33  
  13 21:27:38   -98.323682c -10.00c -5.76c -3.66  
  14 21:27:40   -98.323682c -10.20c -5.82c -3.66  
  15 21:27:43   -98.323682c -10.74c -5.99c -3.79  
  16 21:27:45   -98.323682c -10.27c -6.10c -3.66  
  17 21:27:47   -98.323682c -11.48c -6.20c -4.26c 

Converged after 17 iterations.

Dipole moment: (13.408649, -7.118286, -0.000004) |e|*Ang

Energy contributions relative to reference atoms: (reference = -526675.923698)

Kinetic:         -3.196344
Potential:      -20.750556
External:        +0.000000
XC:             -73.877304
Entropy (-ST):   -0.000314
Local:           -0.499322
--------------------------
Free energy:    -98.323839
Extrapolated:   -98.323682

Showing only first 2 kpts
 Kpt  Band  Eigenvalues  Occupancy
  0    50     -0.37752    2.00000
  0    51     -0.28561    1.99999
  0    52      2.09316    0.00002
  0    53      2.24536    0.00000

  1    50     -0.40013    2.00000
  1    51      0.04251    1.99968
  1    52      2.23174    0.00000
  1    53      2.24178    0.00000


Fermi level: 0.91741

Gap: 1.536 eV
Transition (v -> c):
  (s=0, k=2, n=51, [0.08, -0.08, 0.00]) -> (s=0, k=11, n=52, [0.25, 0.42, 0.00])

Forces in eV/Ang:
  0 Mo   -0.00268   -0.00595    0.00359
  1 S    -0.00796   -0.00998    0.00215
  2 S    -0.00145   -0.00082   -0.00318
  3 Mo   -0.00118   -0.01290   -0.00137
  4 S    -0.00991   -0.00278    0.00968
  5 S    -0.00182    0.01497   -0.00026
  6 Mo    0.00016   -0.00172    0.00077
  7 S     0.00770    0.00492   -0.00122
  8 S    -0.00040    0.00408    0.00410
  9 Mo    0.01204    0.00152    0.00118
 10 S     0.01001    0.00323   -0.00904
 11 S    -0.00450    0.00542   -0.00655

System changes: positions 

Initializing position-dependent things.

Density initialized from wave functions
                                  
                                  
                                  
                                  
             S       S            
                                  
         Mo    S Mo    S          
                                  
           MoS     MoS            
                                  
               S       S          
                                  
                                  
                                  
                                  

Positions:
   0 Mo     0.007222   -0.017767    6.557402    ( 0.0000,  0.0000,  0.0000)
   1 S      1.598101    0.900642    8.085204    ( 0.0000,  0.0000,  0.0000)
   2 S      1.596982    0.899938    5.027940    ( 0.0000,  0.0000,  0.0000)
   3 Mo    -1.582894    2.736041    6.557603    ( 0.0000,  0.0000,  0.0000)
   4 S      0.007751    3.654714    8.085130    ( 0.0000,  0.0000,  0.0000)
   5 S      0.006769    3.652619    5.027877    ( 0.0000,  0.0000,  0.0000)
   6 Mo     3.187182   -0.018134    6.555988    ( 0.0000,  0.0000,  0.0000)
   7 S      4.776374    0.899709    8.085739    ( 0.0000,  0.0000,  0.0000)
   8 S      4.777645    0.900297    5.028235    ( 0.0000,  0.0000,  0.0000)
   9 Mo     1.597067    2.735981    6.556478    ( 0.0000,  0.0000,  0.0000)
  10 S      3.186094    3.654165    8.086405    ( 0.0000,  0.0000,  0.0000)
  11 S      3.187631    3.654025    5.029076    ( 0.0000,  0.0000,  0.0000)

Unit cell:
           periodic     x           y           z      points  spacing
  1. axis:    yes    6.360000    0.000000    0.000000    28     0.1967
  2. axis:    yes   -3.180000    5.507922    0.000000    28     0.1967
  3. axis:    no     0.000000   -0.000000   13.190000    60     0.2198

  Lengths:   6.360000   6.360000  13.190000
  Angles:   90.000000  90.000000 120.000000

Effective grid spacing dv^(1/3) = 0.2142

iter     time        total  log10-change:       
                    energy  eigst   dens  force  
   1 21:27:50   -98.323710  -5.67                
   2 21:27:52   -98.323709  -6.80  -4.22c        
   3 21:27:53   -98.323706c -6.73  -4.27c        
   4 21:27:56   -98.323706c -7.91c -4.57c        
   5 21:27:58   -98.323705c -7.80c -4.63c -2.32  
   6 21:28:00   -98.323705c -7.86c -4.83c -2.28  
   7 21:28:03   -98.323705c -8.58c -5.02c -2.82  
   8 21:28:05   -98.323705c -9.03c -5.21c -3.25  
   9 21:28:07   -98.323705c -9.35c -5.34c -3.17  
  10 21:28:10   -98.323705c -9.60c -5.49c -3.24  
  11 21:28:12   -98.323705c -10.29c -5.81c -3.58  
  12 21:28:14   -98.323705c -10.60c -5.92c -3.58  
  13 21:28:17   -98.323705c -10.70c -5.98c -3.67  
  14 21:28:19   -98.323705c -10.97c -6.06c -3.92  
  15 21:28:21   -98.323705c -11.49c -6.17c -4.09c 

Converged after 15 iterations.

Dipole moment: (13.416723, -7.107282, 0.000021) |e|*Ang

Energy contributions relative to reference atoms: (reference = -526675.923698)

Kinetic:         -3.146464
Potential:      -20.790191
External:        +0.000000
XC:             -73.887261
Entropy (-ST):   -0.000315
Local:           -0.499632
--------------------------
Free energy:    -98.323863
Extrapolated:   -98.323705

Showing only first 2 kpts
 Kpt  Band  Eigenvalues  Occupancy
  0    50     -0.37773    2.00000
  0    51     -0.28574    1.99999
  0    52      2.09308    0.00002
  0    53      2.24567    0.00000

  1    50     -0.40028    2.00000
  1    51      0.04269    1.99968
  1    52      2.23163    0.00000
  1    53      2.24161    0.00000


Fermi level: 0.91738

Gap: 1.536 eV
Transition (v -> c):
  (s=0, k=2, n=51, [0.08, -0.08, 0.00]) -> (s=0, k=16, n=52, [0.42, 0.25, 0.00])

Forces in eV/Ang:
  0 Mo   -0.00049   -0.00034   -0.00019
  1 S    -0.00581   -0.00651    0.00356
  2 S    -0.00098   -0.00090   -0.00389
  3 Mo   -0.00319   -0.00201    0.00095
  4 S    -0.00523   -0.00532    0.00616
  5 S     0.00012    0.01028   -0.00265
  6 Mo    0.00188    0.00095    0.00370
  7 S     0.00476    0.00153    0.00106
  8 S    -0.00129   -0.00048   -0.00084
  9 Mo    0.00376    0.00114    0.00595
 10 S     0.00863   -0.00069   -0.00469
 11 S    -0.00222    0.00248   -0.00899

System changes: positions 

Initializing position-dependent things.

Density initialized from wave functions
                                  
                                  
                                  
                                  
             S       S            
                                  
         Mo    S Mo    S          
                                  
           MoS     MoS            
                                  
               S       S          
                                  
                                  
                                  
                                  

Positions:
   0 Mo     0.007181   -0.017900    6.557424    ( 0.0000,  0.0000,  0.0000)
   1 S      1.597870    0.900364    8.085259    ( 0.0000,  0.0000,  0.0000)
   2 S      1.596921    0.899927    5.027897    ( 0.0000,  0.0000,  0.0000)
   3 Mo    -1.582902    2.735826    6.557525    ( 0.0000,  0.0000,  0.0000)
   4 S      0.007521    3.654596    8.085328    ( 0.0000,  0.0000,  0.0000)
   5 S      0.006736    3.653044    5.027932    ( 0.0000,  0.0000,  0.0000)
   6 Mo     3.187167   -0.018138    6.556075    ( 0.0000,  0.0000,  0.0000)
   7 S      4.776580    0.899799    8.085701    ( 0.0000,  0.0000,  0.0000)
   8 S      4.777642    0.900372    5.028336    ( 0.0000,  0.0000,  0.0000)
   9 Mo     1.597279    2.736008    6.556534    ( 0.0000,  0.0000,  0.0000)
  10 S      3.186403    3.654202    8.086185    ( 0.0000,  0.0000,  0.0000)
  11 S      3.187524    3.654137    5.028884    ( 0.0000,  0.0000,  0.0000)

Unit cell:
           periodic     x           y           z      points  spacing
  1. axis:    yes    6.360000    0.000000    0.000000    28     0.1967
  2. axis:    yes   -3.180000    5.507922    0.000000    28     0.1967
  3. axis:    no     0.000000   -0.000000   13.190000    60     0.2198

  Lengths:   6.360000   6.360000  13.190000
  Angles:   90.000000  90.000000 120.000000

Effective grid spacing dv^(1/3) = 0.2142

iter     time        total  log10-change:       
                    energy  eigst   dens  force  
   1 21:28:24   -98.323723  -5.87                
   2 21:28:25   -98.323722  -7.00  -4.27c        
   3 21:28:27   -98.323719c -6.76  -4.33c        
   4 21:28:29   -98.323719c -8.07c -4.70c        
   5 21:28:32   -98.323719c -8.16c -4.76c -2.63  
   6 21:28:34   -98.323719c -7.96c -4.91c -2.41  
   7 21:28:36   -98.323719c -8.84c -5.12c -2.97  
   8 21:28:38   -98.323719c -9.15c -5.36c -3.26  
   9 21:28:40   -98.323719c -9.36c -5.40c -3.18  
  10 21:28:43   -98.323719c -9.88c -5.62c -3.52  
  11 21:28:45   -98.323719c -10.55c -5.89c -3.62  
  12 21:28:47   -98.323719c -10.78c -5.99c -3.78  
  13 21:28:50   -98.323719c -10.82c -6.05c -3.87  
  14 21:28:52   -98.323719c -10.86c -6.16c -3.80  
  15 21:28:54   -98.323719c -11.80c -6.33c -4.23c 

Converged after 15 iterations.

Dipole moment: (13.427547, -7.102819, 0.000005) |e|*Ang

Energy contributions relative to reference atoms: (reference = -526675.923698)

Kinetic:         -3.151451
Potential:      -20.786228
External:        +0.000000
XC:             -73.886310
Entropy (-ST):   -0.000314
Local:           -0.499573
--------------------------
Free energy:    -98.323876
Extrapolated:   -98.323719

Showing only first 2 kpts
 Kpt  Band  Eigenvalues  Occupancy
  0    50     -0.37769    2.00000
  0    51     -0.28589    1.99999
  0    52      2.09314    0.00002
  0    53      2.24577    0.00000

  1    50     -0.40023    2.00000
  1    51      0.04264    1.99968
  1    52      2.23166    0.00000
  1    53      2.24156    0.00000


Fermi level: 0.91738

Gap: 1.536 eV
Transition (v -> c):
  (s=0, k=2, n=51, [0.08, -0.08, 0.00]) -> (s=0, k=16, n=52, [0.42, 0.25, 0.00])

Forces in eV/Ang:
  0 Mo    0.00093    0.00239   -0.00368
  1 S    -0.00326   -0.00322    0.00307
  2 S    -0.00016   -0.00034   -0.00183
  3 Mo   -0.00153    0.00527   -0.00072
  4 S    -0.00186   -0.00526    0.00275
  5 S     0.00169    0.00527   -0.00160
  6 Mo    0.00130    0.00197    0.00539
  7 S     0.00227   -0.00075    0.00267
  8 S    -0.00177   -0.00293   -0.00294
  9 Mo   -0.00332    0.00024    0.00545
 10 S     0.00629   -0.00273   -0.00120
 11 S    -0.00060    0.00017   -0.00746

System changes: positions 

Initializing position-dependent things.

Density initialized from wave functions
                                  
                                  
                                  
                                  
             S       S            
[...]
   1 S      1.597297    0.899864    8.085683    ( 0.0000,  0.0000,  0.0000)
   2 S      1.597007    0.900041    5.027928    ( 0.0000,  0.0000,  0.0000)
   3 Mo    -1.582929    2.736060    6.557053    ( 0.0000,  0.0000,  0.0000)
   4 S      0.007192    3.653895    8.085691    ( 0.0000,  0.0000,  0.0000)
   5 S      0.006952    3.654029    5.028106    ( 0.0000,  0.0000,  0.0000)
   6 Mo     3.187158   -0.017957    6.556770    ( 0.0000,  0.0000,  0.0000)
   7 S      4.777068    0.899875    8.085782    ( 0.0000,  0.0000,  0.0000)
   8 S      4.777346    0.900171    5.028192    ( 0.0000,  0.0000,  0.0000)
   9 Mo     1.597182    2.736006    6.556895    ( 0.0000,  0.0000,  0.0000)
  10 S      3.187229    3.654031    8.085891    ( 0.0000,  0.0000,  0.0000)
  11 S      3.187204    3.654165    5.028090    ( 0.0000,  0.0000,  0.0000)

Unit cell:
           periodic     x           y           z      points  spacing
  1. axis:    yes    6.360000    0.000000    0.000000    28     0.1967
  2. axis:    yes   -3.180000    5.507922    0.000000    28     0.1967
  3. axis:    no     0.000000   -0.000000   13.190000    60     0.2198

  Lengths:   6.360000   6.360000  13.190000
  Angles:   90.000000  90.000000 120.000000

Effective grid spacing dv^(1/3) = 0.2142

iter     time        total  log10-change:       
                    energy  eigst   dens  force  
   1 21:30:05   -98.323739  -6.55                
   2 21:30:07   -98.323738  -7.71c -4.67c        
   3 21:30:10   -98.323738c -7.62c -4.72c        
   4 21:30:12   -98.323738c -8.91c -5.07c -3.16  
   5 21:30:14   -98.323738c -8.52c -5.15c -2.67  
   6 21:30:17   -98.323738c -8.88c -5.40c -2.90  
   7 21:30:19   -98.323738c -9.36c -5.42c -3.13  
   8 21:30:21   -98.323738c -10.27c -5.74c -3.58  
   9 21:30:24   -98.323738c -10.04c -5.76c -3.46  
  10 21:30:26   -98.323738c -10.27c -5.99c -3.60  
  11 21:30:28   -98.323738c -11.37c -6.19c -4.33c 

Converged after 11 iterations.

Dipole moment: (13.431972, -7.112607, -0.000033) |e|*Ang

Energy contributions relative to reference atoms: (reference = -526675.923698)

Kinetic:         -3.234650
Potential:      -20.720032
External:        +0.000000
XC:             -73.869852
Entropy (-ST):   -0.000313
Local:           -0.499048
--------------------------
Free energy:    -98.323895
Extrapolated:   -98.323738

Showing only first 2 kpts
 Kpt  Band  Eigenvalues  Occupancy
  0    50     -0.37730    2.00000
  0    51     -0.28593    1.99999
  0    52      2.09338    0.00002
  0    53      2.24549    0.00000

  1    50     -0.39991    2.00000
  1    51      0.04228    1.99968
  1    52      2.23190    0.00000
  1    53      2.24175    0.00000


Fermi level: 0.91745

Gap: 1.537 eV
Transition (v -> c):
  (s=0, k=2, n=51, [0.08, -0.08, 0.00]) -> (s=0, k=11, n=52, [0.25, 0.42, 0.00])

Forces in eV/Ang:
  0 Mo   -0.00059   -0.00055   -0.00011
  1 S    -0.00037    0.00207   -0.00009
  2 S     0.00155    0.00050    0.00188
  3 Mo    0.00110   -0.00115   -0.00116
  4 S     0.00015    0.00146   -0.00005
  5 S     0.00172   -0.00104    0.00011
  6 Mo   -0.00011   -0.00033    0.00119
  7 S     0.00037    0.00132   -0.00064
  8 S    -0.00157   -0.00049   -0.00057
  9 Mo    0.00008   -0.00006   -0.00036
 10 S    -0.00175   -0.00016   -0.00128
 11 S    -0.00066   -0.00140    0.00118

System changes: positions 

Initializing position-dependent things.

Density initialized from wave functions
                                  
                                  
                                  
                                  
             S       S            
                                  
         Mo    S Mo    S          
                                  
           MoS     MoS            
                                  
               S       S          
                                  
                                  
                                  
                                  

Positions:
   0 Mo     0.007192   -0.017930    6.556954    ( 0.0000,  0.0000,  0.0000)
   1 S      1.597265    0.899923    8.085667    ( 0.0000,  0.0000,  0.0000)
   2 S      1.597058    0.900055    5.027998    ( 0.0000,  0.0000,  0.0000)
   3 Mo    -1.582855    2.736081    6.556990    ( 0.0000,  0.0000,  0.0000)
   4 S      0.007180    3.653952    8.085703    ( 0.0000,  0.0000,  0.0000)
   5 S      0.007041    3.654006    5.028106    ( 0.0000,  0.0000,  0.0000)
   6 Mo     3.187150   -0.017947    6.556850    ( 0.0000,  0.0000,  0.0000)
   7 S      4.777095    0.899910    8.085801    ( 0.0000,  0.0000,  0.0000)
   8 S      4.777277    0.900130    5.028159    ( 0.0000,  0.0000,  0.0000)
   9 Mo     1.597113    2.736001    6.556892    ( 0.0000,  0.0000,  0.0000)
  10 S      3.187206    3.653989    8.085835    ( 0.0000,  0.0000,  0.0000)
  11 S      3.187192    3.654095    5.028115    ( 0.0000,  0.0000,  0.0000)

Unit cell:
           periodic     x           y           z      points  spacing
  1. axis:    yes    6.360000    0.000000    0.000000    28     0.1967
  2. axis:    yes   -3.180000    5.507922    0.000000    28     0.1967
  3. axis:    no     0.000000   -0.000000   13.190000    60     0.2198

  Lengths:   6.360000   6.360000  13.190000
  Angles:   90.000000  90.000000 120.000000

Effective grid spacing dv^(1/3) = 0.2142

iter     time        total  log10-change:       
                    energy  eigst   dens  force  
   1 21:30:31   -98.323739  -6.91                
   2 21:30:33   -98.323739  -8.04c -4.85c        
   3 21:30:35   -98.323739c -8.08c -4.90c        
   4 21:30:37   -98.323739c -9.20c -5.18c -3.42  
   5 21:30:40   -98.323739c -8.85c -5.28c -2.70  
   6 21:30:42   -98.323739c -9.17c -5.50c -2.89  
   7 21:30:44   -98.323739c -9.78c -5.64c -3.33  
   8 21:30:47   -98.323739c -10.38c -5.85c -3.70  
   9 21:30:49   -98.323739c -10.55c -5.97c -3.75  
  10 21:30:52   -98.323739c -10.86c -6.13c -3.92  
  11 21:30:54   -98.323739c -11.78c -6.43c -4.61c 

Converged after 11 iterations.

Dipole moment: (13.428458, -7.112231, -0.000022) |e|*Ang

Energy contributions relative to reference atoms: (reference = -526675.923698)

Kinetic:         -3.227922
Potential:      -20.725411
External:        +0.000000
XC:             -73.871155
Entropy (-ST):   -0.000313
Local:           -0.499093
--------------------------
Free energy:    -98.323896
Extrapolated:   -98.323739

Showing only first 2 kpts
 Kpt  Band  Eigenvalues  Occupancy
  0    50     -0.37733    2.00000
  0    51     -0.28591    1.99999
  0    52      2.09336    0.00002
  0    53      2.24549    0.00000

  1    50     -0.39993    2.00000
  1    51      0.04231    1.99968
  1    52      2.23188    0.00000
  1    53      2.24174    0.00000


Fermi level: 0.91745

Gap: 1.537 eV
Transition (v -> c):
  (s=0, k=2, n=51, [0.08, -0.08, 0.00]) -> (s=0, k=11, n=52, [0.25, 0.42, 0.00])

Forces in eV/Ang:
  0 Mo   -0.00059   -0.00056    0.00034
  1 S    -0.00082    0.00135    0.00050
  2 S     0.00093    0.00003    0.00095
  3 Mo   -0.00035   -0.00202   -0.00003
  4 S     0.00005    0.00074    0.00036
  5 S     0.00088    0.00006   -0.00034
  6 Mo    0.00040   -0.00021   -0.00018
  7 S     0.00055    0.00141   -0.00112
  8 S    -0.00102   -0.00026   -0.00011
  9 Mo    0.00168    0.00024    0.00016
 10 S    -0.00119    0.00011   -0.00128
 11 S    -0.00063   -0.00083    0.00056

System changes: positions 

Initializing position-dependent things.

Density initialized from wave functions
                                  
                                  
                                  
                                  
             S       S            
                                  
         Mo    S Mo    S          
                                  
           MoS     MoS            
                                  
               S       S          
                                  
                                  
                                  
                                  

Positions:
   0 Mo     0.007170   -0.017944    6.556930    ( 0.0000,  0.0000,  0.0000)
   1 S      1.597224    0.899979    8.085674    ( 0.0000,  0.0000,  0.0000)
   2 S      1.597104    0.900063    5.028059    ( 0.0000,  0.0000,  0.0000)
   3 Mo    -1.582825    2.736058    6.556946    ( 0.0000,  0.0000,  0.0000)
   4 S      0.007173    3.653994    8.085723    ( 0.0000,  0.0000,  0.0000)
   5 S      0.007112    3.654004    5.028103    ( 0.0000,  0.0000,  0.0000)
   6 Mo     3.187156   -0.017940    6.556890    ( 0.0000,  0.0000,  0.0000)
   7 S      4.777125    0.899956    8.085793    ( 0.0000,  0.0000,  0.0000)
   8 S      4.777216    0.900098    5.028140    ( 0.0000,  0.0000,  0.0000)
   9 Mo     1.597105    2.736005    6.556894    ( 0.0000,  0.0000,  0.0000)
  10 S      3.187178    3.653962    8.085778    ( 0.0000,  0.0000,  0.0000)
  11 S      3.187172    3.654038    5.028136    ( 0.0000,  0.0000,  0.0000)

Unit cell:
           periodic     x           y           z      points  spacing
  1. axis:    yes    6.360000    0.000000    0.000000    28     0.1967
  2. axis:    yes   -3.180000    5.507922    0.000000    28     0.1967
  3. axis:    no     0.000000   -0.000000   13.190000    60     0.2198

  Lengths:   6.360000   6.360000  13.190000
  Angles:   90.000000  90.000000 120.000000

Effective grid spacing dv^(1/3) = 0.2142

iter     time        total  log10-change:       
                    energy  eigst   dens  force  
   1 21:30:56   -98.323739  -7.27                
   2 21:30:58   -98.323739  -8.40c -5.04c        
   3 21:31:00   -98.323739c -8.52c -5.10c        
   4 21:31:03   -98.323739c -9.63c -5.38c -3.64  
   5 21:31:05   -98.323739c -9.38c -5.48c -3.10  
   6 21:31:07   -98.323739c -9.68c -5.69c -3.25  
   7 21:31:09   -98.323739c -10.19c -5.82c -3.66  
   8 21:31:11   -98.323739c -10.67c -6.03c -4.03c 

Converged after 8 iterations.

Dipole moment: (13.427712, -7.111427, -0.000024) |e|*Ang

Energy contributions relative to reference atoms: (reference = -526675.923698)

Kinetic:         -3.221286
Potential:      -20.730728
External:        +0.000000
XC:             -73.872421
Entropy (-ST):   -0.000314
Local:           -0.499147
--------------------------
Free energy:    -98.323896
Extrapolated:   -98.323739

Showing only first 2 kpts
 Kpt  Band  Eigenvalues  Occupancy
  0    50     -0.37736    2.00000
  0    51     -0.28591    1.99999
  0    52      2.09334    0.00002
  0    53      2.24552    0.00000

  1    50     -0.39996    2.00000
  1    51      0.04234    1.99968
  1    52      2.23187    0.00000
  1    53      2.24173    0.00000


Fermi level: 0.91744

Gap: 1.537 eV
Transition (v -> c):
  (s=0, k=2, n=51, [0.08, -0.08, 0.00]) -> (s=0, k=11, n=52, [0.25, 0.42, 0.00])

Forces in eV/Ang:
  0 Mo   -0.00018   -0.00029    0.00063
  1 S    -0.00076    0.00057    0.00052
  2 S     0.00044   -0.00038    0.00020
  3 Mo   -0.00056   -0.00131    0.00071
  4 S    -0.00019    0.00019    0.00015
  5 S     0.00019    0.00036   -0.00037
  6 Mo    0.00022   -0.00023   -0.00027
  7 S     0.00046    0.00106   -0.00096
  8 S    -0.00046   -0.00032   -0.00023
  9 Mo    0.00142    0.00021    0.00059
 10 S    -0.00037    0.00034   -0.00073
 11 S    -0.00020   -0.00028   -0.00015

System changes: positions 

Initializing position-dependent things.

Density initialized from wave functions
                                  
                                  
                                  
                                  
             S       S            
                                  
         Mo    S Mo    S          
                                  
           MoS     MoS            
                                  
               S       S          
                                  
                                  
                                  
                                  

Positions:
   0 Mo     0.007159   -0.017948    6.556924    ( 0.0000,  0.0000,  0.0000)
   1 S      1.597192    0.900011    8.085694    ( 0.0000,  0.0000,  0.0000)
   2 S      1.597151    0.900062    5.028096    ( 0.0000,  0.0000,  0.0000)
   3 Mo    -1.582824    2.736026    6.556926    ( 0.0000,  0.0000,  0.0000)
   4 S      0.007155    3.653993    8.085740    ( 0.0000,  0.0000,  0.0000)
   5 S      0.007152    3.654010    5.028099    ( 0.0000,  0.0000,  0.0000)
   6 Mo     3.187162   -0.017951    6.556922    ( 0.0000,  0.0000,  0.0000)
   7 S      4.777153    0.900003    8.085771    ( 0.0000,  0.0000,  0.0000)
   8 S      4.777167    0.900072    5.028121    ( 0.0000,  0.0000,  0.0000)
   9 Mo     1.597128    2.736009    6.556911    ( 0.0000,  0.0000,  0.0000)
  10 S      3.187166    3.653969    8.085731    ( 0.0000,  0.0000,  0.0000)
  11 S      3.187149    3.654018    5.028130    ( 0.0000,  0.0000,  0.0000)

Unit cell:
           periodic     x           y           z      points  spacing
  1. axis:    yes    6.360000    0.000000    0.000000    28     0.1967
  2. axis:    yes   -3.180000    5.507922    0.000000    28     0.1967
  3. axis:    no     0.000000   -0.000000   13.190000    60     0.2198

  Lengths:   6.360000   6.360000  13.190000
  Angles:   90.000000  90.000000 120.000000

Effective grid spacing dv^(1/3) = 0.2142

iter     time        total  log10-change:       
                    energy  eigst   dens  force  
   1 21:31:14   -98.323740  -7.44c               
   2 21:31:16   -98.323740  -8.60c -5.05c        
   3 21:31:18   -98.323740c -8.35c -5.11c        
   4 21:31:21   -98.323740c -9.76c -5.50c -3.62  
   5 21:31:23   -98.323740c -9.60c -5.59c -3.27  
   6 21:31:25   -98.323740c -9.61c -5.77c -3.14  
   7 21:31:27   -98.323740c -10.50c -5.89c -3.71  
   8 21:31:30   -98.323740c -11.16c -6.12c -4.18c 

Converged after 8 iterations.

Dipole moment: (13.428037, -7.110505, -0.000021) |e|*Ang

Energy contributions relative to reference atoms: (reference = -526675.923698)

Kinetic:         -3.219061
Potential:      -20.732464
External:        +0.000000
XC:             -73.872907
Entropy (-ST):   -0.000314
Local:           -0.499151
--------------------------
Free energy:    -98.323896
Extrapolated:   -98.323740

Showing only first 2 kpts
 Kpt  Band  Eigenvalues  Occupancy
  0    50     -0.37737    2.00000
  0    51     -0.28592    1.99999
  0    52      2.09334    0.00002
  0    53      2.24554    0.00000

  1    50     -0.39997    2.00000
  1    51      0.04235    1.99968
  1    52      2.23186    0.00000
  1    53      2.24172    0.00000


Fermi level: 0.91744

Gap: 1.537 eV
Transition (v -> c):
  (s=0, k=2, n=51, [0.08, -0.08, 0.00]) -> (s=0, k=11, n=52, [0.25, 0.42, 0.00])

Forces in eV/Ang:
  0 Mo    0.00003    0.00002    0.00009
  1 S    -0.00042    0.00021    0.00047
  2 S    -0.00001   -0.00038    0.00008
  3 Mo   -0.00033   -0.00032    0.00023
  4 S    -0.00003    0.00008   -0.00003
  5 S    -0.00008    0.00003    0.00000
  6 Mo    0.00008   -0.00003   -0.00031
  7 S     0.00016    0.00043   -0.00049
  8 S     0.00003   -0.00029   -0.00008
  9 Mo    0.00050    0.00010    0.00020
 10 S    -0.00008    0.00029   -0.00003
 11 S     0.00014   -0.00012   -0.00023

Timing:                                      incl.     excl.
-------------------------------------------------------------------
Density initialized from wave functions:     5.167     5.166   0.5% |
 Symmetrize density:                         0.001     0.001   0.0% |
Forces:                                     14.981    14.981   1.4% ||
Hamiltonian:                                 2.534     0.040   0.0% |
 Atomic:                                     0.909     0.700   0.1% |
  XC Correction:                             0.209     0.209   0.0% |
 Calculate atomic Hamiltonians:              0.964     0.964   0.1% |
 Communicate:                                0.133     0.133   0.0% |
 Initialize Hamiltonian:                     0.000     0.000   0.0% |
 Poisson:                                    0.026     0.026   0.0% |
 XC 3D grid:                                 0.461     0.461   0.0% |
LCAO initialization:                         1.806     0.095   0.0% |
 LCAO eigensolver:                           0.199     0.000   0.0% |
  Calculate projections:                     0.001     0.001   0.0% |
  DenseAtomicCorrection:                     0.001     0.001   0.0% |
  Distribute overlap matrix:                 0.001     0.001   0.0% |
  Orbital Layouts:                           0.006     0.006   0.0% |
  Potential matrix:                          0.189     0.189   0.0% |
  Sum over cells:                            0.001     0.001   0.0% |
 LCAO to grid:                               1.210     1.210   0.1% |
 Set positions (LCAO WFS):                   0.302     0.235   0.0% |
  Basic WFS set positions:                   0.000     0.000   0.0% |
  Basis functions set positions:             0.000     0.000   0.0% |
  P tci:                                     0.036     0.036   0.0% |
  ST tci:                                    0.024     0.024   0.0% |
  mktci:                                     0.007     0.007   0.0% |
PWDescriptor:                                0.220     0.220   0.0% |
Redistribute:                                0.053     0.053   0.0% |
SCF-cycle:                                1034.752   158.134  14.8% |-----|
 Davidson:                                 570.447   120.453  11.3% |----|
  Apply H:                                  79.305    77.554   7.3% |--|
   HMM T:                                    1.751     1.751   0.2% |
  Subspace diag:                           105.901     0.245   0.0% |
   calc_h_matrix:                           87.617     8.468   0.8% |
    Apply H:                                79.150    77.448   7.3% |--|
     HMM T:                                  1.702     1.702   0.2% |
   diagonalize:                              3.960     3.960   0.4% |
   rotate_psi:                              14.079    14.079   1.3% ||
  calc. matrices:                          216.615    61.325   5.7% |-|
   Apply H:                                155.290   151.763  14.2% |-----|
    HMM T:                                   3.526     3.526   0.3% |
  diagonalize:                              17.734    17.734   1.7% ||
  rotate_psi:                               30.440    30.440   2.9% ||
 Density:                                   94.115     0.008   0.0% |
  Atomic density matrices:                   9.589     9.589   0.9% |
  Mix:                                      26.063    26.063   2.4% ||
  Multipole moments:                         0.072     0.072   0.0% |
  Pseudo density:                           58.385    58.374   5.5% |-|
   Symmetrize density:                       0.011     0.011   0.0% |
 Forces:                                   162.306   162.306  15.2% |-----|
 Hamiltonian:                               47.782     0.580   0.1% |
  Atomic:                                   18.274    14.126   1.3% ||
   XC Correction:                            4.148     4.148   0.4% |
  Calculate atomic Hamiltonians:            18.287    18.287   1.7% ||
  Communicate:                               1.666     1.666   0.2% |
  Poisson:                                   0.411     0.411   0.0% |
  XC 3D grid:                                8.564     8.564   0.8% |
 Orthonormalize:                             1.967     0.014   0.0% |
  calc_s_matrix:                             0.275     0.275   0.0% |
  inverse-cholesky:                          0.053     0.053   0.0% |
  projections:                               1.207     1.207   0.1% |
  rotate_psi_s:                              0.418     0.418   0.0% |
Set symmetry:                                0.001     0.001   0.0% |
Other:                                       7.503     7.503   0.7% |
-------------------------------------------------------------------
Total:                                              1067.015 100.0%

Memory usage: 225.31 MiB
Date: Wed Aug 11 21:31:30 2021
